/*--------------------------------*- C++ -*----------------------------------*\
| =========                 |                                                 |
| \\      /  F ield         | OpenFOAM: The Open Source CFD Toolbox           |
|  \\    /   O peration     | Version:  2406                                  |
|   \\  /    A nd           | Website:  www.openfoam.com                      |
|    \\/     M anipulation  |                                                 |
\*---------------------------------------------------------------------------*/
FoamFile
{
    version     2.0;
    format      ascii;
    arch        "LSB;label=32;scalar=64";
    class       volScalarField;
    location    "0.0001999544447";
    object      p;
}
// * * * * * * * * * * * * * * * * * * * * * * * * * * * * * * * * * * * * * //

dimensions      [1 -1 -2 0 0 0 0];

internalField   nonuniform List<scalar> 
17141
(
79.78
79.78
79.78
79.78
79.78
79.78
79.78
143.895
79.78
79.78
79.78
79.78
618.604
79.78
79.78
79.78
79.78
79.78
79.78
79.7765
79.78
79.78
79.78
74.9579
79.78
79.78
79.78
79.78
79.78
62.9656
79.78
79.78
79.78
79.78
292.997
79.2554
79.78
79.78
79.78
79.78
76.4625
79.78
79.78
1028.73
79.78
79.78
79.78
78.6724
79.78
79.78
79.78
79.78
79.78
79.78
79.78
79.78
79.78
79.78
79.78
79.78
7.36408
79.78
90.4367
79.78
79.78
79.78
79.78
79.78
79.78
79.78
58.3716
135.851
79.78
79.78
79.78
79.78
79.78
79.5581
79.7707
79.78
79.78
79.78
79.78
79.78
79.78
581.603
79.78
56.1032
79.78
79.78
79.78
79.78
38.9901
79.7793
79.78
79.78
79.78
79.78
79.78
79.78
79.78
79.78
79.78
79.78
79.78
1017.5
79.78
79.78
79.78
79.78
163.612
79.78
79.78
79.78
79.78
73.0679
79.78
79.78
79.78
79.78
79.78
79.78
79.78
79.78
79.78
79.78
79.78
79.78
79.78
79.78
79.78
79.78
75.5332
79.78
79.78
5.96076
156.651
79.78
79.78
168.736
79.78
79.78
79.78
79.78
671.988
79.78
847.748
79.78
79.78
79.78
79.7789
79.78
78.1699
79.4032
79.78
79.78
79.78
79.78
79.78
79.78
79.78
79.78
79.78
79.78
79.78
79.78
299.207
79.78
79.78
79.78
79.78
79.78
79.78
79.78
803.915
79.7787
43.8381
560.021
79.78
32.3661
79.78
79.78
79.78
79.78
555.381
158.925
79.78
79.78
79.78
79.78
79.78
79.78
79.78
79.78
643.155
79.7801
258.701
79.78
79.78
79.78
4.33757
79.7789
79.78
79.78
79.78
96.6339
139.037
79.78
79.78
79.78
78.1587
79.78
79.78
79.78
188.925
79.78
79.7794
79.78
79.78
73.5485
79.78
79.78
79.78
79.78
79.78
79.78
60.0358
79.78
79.78
79.78
79.7753
79.78
79.78
36.0539
79.78
76.4878
79.78
79.4012
79.78
61.2769
79.78
79.78
806.859
79.78
79.78
79.78
79.78
79.78
79.7629
79.78
79.78
79.78
135.613
79.78
79.78
79.78
79.78
79.78
79.78
79.78
79.78
79.78
79.78
79.78
740.627
79.78
79.78
90.6983
80.0507
751.533
79.78
79.78
79.78
79.78
79.78
79.78
8.54092
79.9562
79.7797
79.78
363.302
80.1
79.78
79.78
38.8658
79.78
79.78
79.78
916.584
79.78
6.0353
79.78
79.78
4.32411
79.78
79.78
60.2377
79.78
18.4202
79.78
79.78
79.78
79.7801
79.78
79.78
472.821
79.78
79.78
79.78
79.78
79.78
79.78
79.78
22.3056
79.78
142.92
79.78
79.78
79.78
379.012
33.4861
79.78
79.78
79.78
79.78
79.78
79.78
79.78
16.9588
79.78
721.492
79.78
285.233
79.78
79.78
79.78
79.78
79.78
79.78
79.7115
79.78
79.78
759.037
79.78
79.78
79.78
79.78
79.78
861.122
79.78
79.78
20.172
79.78
79.78
79.78
79.78
79.78
79.78
79.78
366.305
79.78
79.78
79.78
79.78
63.091
79.78
79.78
79.78
79.78
332.412
79.78
79.78
79.78
290.799
80.3313
79.7796
79.78
536.501
17.6306
151.349
79.78
427.858
79.78
79.78
79.78
125.945
79.78
79.78
79.78
79.78
79.78
79.7784
89.7188
79.78
79.78
36.1014
79.78
671.473
44.7182
79.78
79.78
79.78
79.78
79.78
78.7908
79.78
5.59631
79.78
79.78
79.78
79.78
79.78
357.165
79.78
33.4601
79.78
50.9886
332.875
79.78
79.78
704.946
79.78
79.78
79.78
79.78
79.78
79.78
79.78
644.816
79.78
79.78
79.78
79.78
79.78
79.78
79.78
79.78
79.78
76.7786
79.78
79.78
79.78
79.78
79.78
79.78
169.902
79.78
79.78
79.78
80.5093
79.78
79.78
79.78
79.78
161.748
79.78
79.78
79.78
79.78
79.78
66.2419
79.78
79.78
128.193
31.4139
890.137
79.78
79.78
79.78
79.78
79.775
79.78
79.78
36.7154
79.78
79.78
79.78
79.78
79.78
79.7779
79.78
79.78
79.78
79.78
65.5711
276.639
80.1698
79.78
79.78
19.8059
79.78
79.78
34.6439
79.78
79.78
60.4492
79.78
417.65
401.288
334.261
79.78
79.78
79.78
766.303
79.78
79.78
79.78
79.78
504.115
79.7795
79.78
79.78
31.3218
79.78
79.78
79.78
858.205
79.4092
79.78
79.78
79.7744
79.78
79.78
79.78
79.78
79.78
79.78
79.78
79.78
79.78
426.682
79.78
79.78
79.78
79.78
79.78
79.78
353.693
79.78
79.7793
79.78
79.78
79.78
79.78
79.78
79.78
79.78
79.78
79.78
130.676
79.78
79.78
79.78
79.78
79.78
79.78
79.78
79.78
79.78
79.78
47.3816
79.7796
79.78
177.921
205.804
79.78
79.78
5.27565
438.738
79.78
79.78
671.323
79.78
79.78
79.78
79.78
79.78
79.78
4.97035
79.78
79.78
79.78
79.78
79.78
12.1731
79.78
580.431
79.78
200.238
79.78
79.78
79.78
832.053
397.8
79.78
871.828
70.9479
79.78
79.78
179.053
79.78
79.78
79.78
79.78
79.78
79.78
79.78
79.78
132.233
767.736
79.78
79.78
79.7799
79.78
79.78
79.7714
79.78
79.78
79.78
79.78
79.78
299.733
79.78
79.78
139.551
47.8726
79.78
79.78
79.78
79.7687
58.1229
642.77
79.78
79.78
79.78
195.535
79.78
79.78
79.78
79.78
79.78
79.78
79.78
79.78
79.78
79.78
79.78
79.7803
79.78
79.78
79.78
79.78
79.78
79.78
79.78
79.78
19.0244
79.78
434.669
79.78
297.783
79.78
907.077
79.78
79.78
386.314
79.78
79.78
79.78
79.78
88.1
79.78
79.78
79.78
79.78
21.2792
16.0365
79.78
79.78
79.78
79.78
79.78
79.78
79.78
79.78
79.78
79.78
185.227
79.78
79.78
7.41038
389.219
79.78
79.78
79.78
79.78
79.78
79.78
79.78
52.3961
79.78
79.78
79.78
890.243
79.78
79.78
79.78
79.78
79.78
79.78
79.78
79.78
79.7792
79.78
434.663
79.78
79.78
79.78
79.78
79.78
58.6721
79.78
79.78
79.78
6.13633
79.78
79.78
87.5396
79.7799
79.78
79.7804
79.78
79.78
79.78
79.78
79.78
728.799
79.78
79.78
503.599
79.78
79.78
79.78
79.78
79.78
79.78
79.78
79.78
472.501
79.78
4.01337
86.5102
79.78
79.78
79.78
602.917
209.381
79.78
79.78
79.78
79.78
79.78
79.78
79.78
888.803
79.78
79.78
79.78
79.78
310.841
79.78
79.78
79.7797
79.78
79.78
79.7146
79.78
79.78
79.78
79.78
79.78
171.717
79.78
710.626
79.78
79.78
79.78
79.78
79.78
79.78
79.78
75.3844
365.923
79.78
79.78
79.78
79.78
79.78
79.78
79.78
79.78
4.24584
79.78
79.78
79.78
259.994
79.78
79.78
78.1622
79.78
71.7564
79.78
79.78
62.834
79.78
968.984
79.7797
79.78
79.78
56.1083
79.78
119.311
79.78
79.78
79.78
162.671
79.78
79.78
79.78
79.78
79.78
52.6101
79.78
79.78
253.607
79.78
79.78
79.7806
137.222
79.78
79.7758
79.78
79.78
98.2965
79.7799
79.78
79.7796
79.78
79.78
494.599
79.78
79.78
79.78
79.78
79.78
79.78
6.64803
58.0231
79.78
70.0461
79.78
79.78
79.78
79.78
79.78
79.78
79.7787
79.78
79.78
79.78
79.78
32.5573
79.78
171.05
154.185
79.78
29.6279
79.78
79.78
79.78
79.78
79.78
50.4085
79.78
79.78
79.78
79.78
376.028
79.78
79.78
79.78
79.78
79.7781
79.78
333.455
5.18704
484.749
9.30415
79.78
446.242
79.78
139.5
79.78
131.949
79.78
79.78
39.4819
430.306
731.106
79.78
79.78
79.78
79.78
79.78
456.4
909.737
79.78
79.78
79.78
79.78
79.7799
79.78
79.78
79.78
79.7799
79.78
79.78
79.78
79.78
372.593
79.78
79.78
79.78
79.78
79.78
79.78
79.78
373.815
79.78
79.78
28.3633
269.233
409.989
79.78
79.7798
79.78
5.88375
79.78
79.78
79.78
79.78
79.78
79.78
79.78
73.7369
79.78
79.78
79.78
26.6014
79.78
37.1967
79.78
79.78
75.2166
79.78
79.78
79.78
55.207
25.2741
79.78
4.98851
79.7787
79.78
79.78
79.78
79.78
79.78
80.2911
13.9762
79.78
79.78
79.8259
79.7776
38.8992
79.78
79.6795
79.78
79.78
6.39934
79.78
79.7782
79.78
79.78
79.78
79.78
44.8688
79.78
79.78
79.78
79.78
79.78
79.78
79.78
79.78
79.78
126.734
679.667
79.78
79.78
62.0716
79.78
79.78
79.78
67.1514
79.78
79.78
79.78
79.7802
885.724
223.997
61.2251
50.9893
24.9343
79.78
79.78
79.78
79.78
79.78
79.78
80.0369
79.78
79.78
79.7793
888.404
975.736
79.78
825.678
527.086
79.78
79.78
79.78
79.78
79.78
38.8364
79.78
79.78
79.78
79.7793
79.78
64.3589
79.78
79.78
79.78
79.78
79.78
10.7786
79.78
79.78
79.78
79.78
79.78
79.78
79.78
79.78
79.5311
79.78
79.78
38.7708
78.4499
14.116
195.465
79.78
79.78
79.78
79.78
79.78
79.78
18.1721
79.78
57.4611
79.78
79.78
79.78
79.78
26.2506
79.78
79.78
79.78
160.715
79.78
79.78
845.124
79.78
79.78
79.78
79.78
79.78
79.78
25.7856
79.78
79.78
79.779
79.78
79.78
79.78
79.78
79.78
79.78
79.78
79.78
79.78
79.78
79.78
79.78
79.78
79.78
23.1915
79.78
79.78
79.78
79.78
79.0902
79.78
78.545
36.601
79.78
79.78
79.78
56.6138
79.78
79.78
79.78
79.78
407.559
79.78
79.78
79.78
79.9366
79.78
152.534
79.78
79.78
79.78
79.78
79.78
79.78
79.78
79.7951
73.7941
79.78
79.78
79.78
79.78
79.78
79.5956
747.365
79.78
79.8242
79.78
602.168
79.78
79.78
79.78
79.78
30.9477
55.3306
79.78
79.78
79.78
79.78
4.10427
79.78
79.78
565.046
285.512
79.78
79.78
79.78
79.78
79.78
79.7764
151.806
79.78
325.456
79.78
79.78
79.78
79.78
79.78
79.78
79.78
79.78
79.78
79.78
79.78
79.78
75.6572
79.78
79.78
79.78
79.78
133.441
173.54
63.4514
79.78
79.78
79.78
508.783
79.78
25.8013
79.78
659.598
79.78
98.8475
25.8225
1029.71
79.78
220.54
79.78
79.78
79.78
79.7807
79.78
79.78
79.78
79.78
1002.05
79.78
64.8857
79.7787
79.78
79.78
79.78
79.78
79.78
65.8014
79.78
79.78
79.78
79.78
79.78
28.2974
79.78
79.78
79.78
79.7864
79.78
79.78
740.12
79.78
79.78
79.78
79.78
79.78
79.78
10.2717
79.78
79.78
586.944
79.78
79.7487
48.2222
79.78
79.78
79.7604
79.78
79.78
277.597
79.78
79.78
79.78
79.7805
79.78
79.78
79.78
79.78
79.78
79.7636
79.78
79.78
79.78
79.78
33.1605
79.78
786.722
79.78
79.78
79.78
79.78
79.78
69.6524
79.78
79.78
79.78
773.277
28.4799
79.78
79.78
55.3755
79.78
15.6231
79.78
184.33
79.78
79.78
48.1825
79.78
79.78
79.78
79.78
625.048
75.1617
79.78
79.78
52.6942
567.673
79.7858
79.78
199.636
76.7362
79.78
218.206
79.78
79.78
79.78
79.78
79.78
79.78
79.78
79.78
219.084
79.78
79.78
79.78
79.78
79.78
298.97
79.78
79.78
79.78
79.78
79.78
57.7869
79.78
37.1623
79.78
79.78
79.7797
79.78
79.78
79.78
79.78
79.78
79.78
79.78
23.486
79.78
79.78
78.8536
79.78
66.6959
4.16098
79.78
79.78
79.78
79.78
79.78
79.78
79.78
79.78
79.78
79.78
183.227
79.78
61.776
79.78
445.152
79.78
79.78
378.194
79.78
79.78
79.78
135.793
79.7812
79.78
79.78
79.6954
433.073
79.78
79.78
27.2415
79.78
79.78
79.78
262.313
79.78
23.7458
79.78
79.78
79.78
79.78
79.7802
79.78
79.78
79.78
79.78
79.78
79.78
79.78
79.7894
79.78
79.78
79.78
79.78
43.6023
15.177
79.78
79.78
79.78
291.306
58.3202
79.78
79.78
79.7798
79.78
79.78
79.78
57.8831
401.344
79.78
79.78
79.78
79.78
79.78
79.78
79.78
79.78
79.78
79.78
79.78
79.78
909.971
79.78
79.78
79.78
79.78
79.78
79.78
56.5145
79.78
79.78
79.78
79.78
79.78
81.5647
79.78
252.429
79.78
79.78
79.78
53.099
79.78
79.78
79.7801
79.78
79.78
79.78
145.651
51.1859
79.78
79.78
79.78
79.78
217.605
79.78
79.7469
221.639
79.78
79.78
79.78
79.78
79.78
79.78
79.78
79.78
79.78
15.7878
79.78
79.78
79.78
79.78
79.78
76.9561
79.78
79.78
79.78
79.78
79.78
79.7776
79.78
79.78
79.78
79.78
79.78
79.78
79.7696
79.78
79.78
706.628
79.78
79.78
79.78
19.9191
173.416
79.78
79.78
79.78
79.78
79.78
79.5943
79.78
42.0588
79.78
49.8177
79.78
79.78
680.36
79.78
79.7764
78.8088
79.78
77.8745
79.78
79.78
79.78
79.78
79.78
98.5743
79.78
79.7278
79.78
79.78
79.78
79.78
79.78
79.78
79.78
79.78
79.78
79.78
79.78
79.78
79.7798
79.78
79.78
968.011
79.78
79.78
79.78
438.415
79.78
79.78
12.3863
14.0267
79.7799
329.66
79.78
79.78
79.78
79.78
52.7413
79.78
484.428
79.78
79.78
226.427
79.78
79.78
202.163
79.78
207.144
79.78
79.78
79.78
143.785
79.78
79.78
79.78
79.78
23.0797
79.78
491.147
79.78
79.78
79.78
79.78
79.78
269.302
79.78
79.78
79.78
79.78
79.78
79.78
79.78
79.78
79.78
76.8826
79.78
79.78
77.5062
79.78
79.78
79.78
79.78
79.78
10.2905
79.78
79.7827
79.78
79.78
79.7798
79.78
79.78
79.78
79.78
79.3867
126.466
73.1683
79.78
81.5569
79.78
79.783
79.78
79.78
79.78
320.13
79.78
68.2884
7.62954
79.78
79.78
79.8027
79.78
74.8151
79.78
79.78
79.78
79.78
32.9172
73.6657
79.78
605.218
79.7847
79.78
79.78
79.78
79.78
79.78
79.78
79.78
79.78
79.78
79.78
79.7799
79.7833
79.78
79.78
79.78
79.78
79.78
79.7797
79.78
45.9154
79.78
372.406
79.78
79.78
79.78
79.78
79.78
79.78
79.78
79.78
456.947
81.1037
79.78
79.78
30.5729
79.78
41.3977
79.7795
510.087
79.78
79.78
79.78
28.6355
283.308
25.0675
170.899
71.1184
128.453
79.78
82.4445
79.78
79.78
116.146
79.78
79.6905
79.78
79.78
79.78
79.78
79.78
79.6231
79.78
79.78
79.78
79.78
52.6612
886.69
79.78
79.7708
173.994
79.78
79.78
79.78
79.78
79.78
79.78
79.78
57.3052
79.78
87.3607
236.179
79.78
30.9982
79.78
79.78
48.7855
79.78
79.78
79.78
57.047
79.78
23.7303
79.78
79.78
79.78
79.78
79.78
79.78
79.78
79.78
79.78
953.796
79.78
79.78
79.78
427.69
79.7451
79.78
979.025
79.78
26.5202
79.78
79.78
79.78
79.7799
79.78
79.78
79.78
79.78
79.78
23.4072
502.769
79.78
46.7392
79.78
79.78
79.78
79.78
79.78
79.78
79.7766
207.524
79.78
79.78
79.78
79.78
79.78
79.78
79.78
354.136
79.6639
79.78
79.78
79.78
79.78
79.78
79.78
79.78
79.78
79.78
79.78
79.7908
663.696
79.78
79.78
22.7871
79.78
79.78
79.78
79.78
79.78
141.818
79.78
79.78
79.78
433.67
79.78
79.78
79.78
79.78
79.78
79.78
102.121
250.553
17.4387
44.2471
79.78
79.78
79.776
79.78
79.78
69.4482
830.539
79.78
79.78
79.78
224.653
79.78
79.78
7.45751
79.78
56.6112
79.78
79.78
79.78
79.78
528.216
79.78
25.0913
79.78
79.78
79.78
79.78
79.7801
79.78
79.78
79.78
79.78
79.78
79.78
79.78
79.78
1013.55
30.5857
79.78
79.78
36.2561
79.78
79.78
79.7929
79.78
79.78
79.78
79.78
79.78
228.597
581.54
82.2929
79.78
79.78
79.78
79.78
79.78
374.981
79.78
79.78
79.78
79.78
79.78
46.9511
79.78
79.78
79.78
79.78
79.78
79.78
79.78
58.2773
79.78
206.257
74.3497
79.78
79.78
79.7958
149.427
79.78
79.78
79.78
79.78
79.78
143.234
79.78
77.1475
79.78
79.78
81.067
30.1551
79.78
8.05499
79.78
685.351
161.049
79.78
80.0379
79.78
741.109
79.78
79.78
689.24
79.78
79.78
79.78
79.78
79.78
516.374
79.78
79.78
79.78
79.78
79.78
79.78
79.78
79.78
79.78
79.78
79.78
79.78
79.78
75.7184
79.78
79.78
79.78
79.78
80.3059
79.78
79.78
35.6089
79.78
79.78
79.78
622.943
79.78
79.7802
51.4401
79.78
29.6281
79.78
156.512
79.78
79.78
96.1618
79.78
845.605
79.78
615.035
79.78
79.78
79.78
79.78
78.4823
79.7812
73.7281
79.78
79.78
79.78
79.78
930.833
79.78
79.78
79.78
79.78
35.0274
79.7799
195.256
79.78
79.78
736.572
79.78
79.7704
79.78
79.78
79.78
80.3985
79.78
79.78
75.1844
79.78
79.78
79.78
156.721
79.78
79.78
79.78
79.78
79.78
79.78
79.78
79.78
79.78
79.8856
79.78
79.78
79.78
79.78
79.78
79.78
236.567
545.121
79.78
79.78
79.78
40.3103
79.78
79.78
686.402
79.78
79.78
4.19533
79.78
79.78
79.78
79.78
79.7787
79.78
79.78
79.78
79.78
79.78
79.78
79.78
79.78
79.78
81.2782
36.6032
303.366
79.78
79.78
79.78
25.8051
8.88861
79.78
79.78
80.1017
441.555
516.127
79.78
79.78
79.78
451.667
79.78
161.665
79.78
79.78
79.7586
79.78
79.78
79.78
79.78
40.8601
78.608
79.78
79.78
79.78
823.906
41.5902
20.0201
79.78
27.6228
79.78
23.1652
773.722
79.78
79.78
79.78
42.3364
79.7798
79.78
22.0411
79.7401
79.78
79.78
158.943
693.933
79.78
79.78
79.7769
79.78
79.78
79.78
79.78
79.78
79.78
273.085
79.78
79.78
79.78
79.78
497.571
79.78
561.414
79.78
79.78
67.0966
79.78
79.78
79.78
79.78
79.78
75.6194
79.78
79.78
19.5026
79.78
79.78
79.7847
79.78
79.78
79.78
78.9082
79.78
79.78
79.78
79.78
79.78
44.7632
79.78
79.7799
79.7837
26.9661
79.78
79.78
85.2465
79.78
79.78
79.78
79.78
79.78
30.072
79.78
79.78
79.487
79.78
486.428
79.78
79.78
79.78
79.78
79.7795
79.78
78.4533
79.78
79.78
79.78
80.1019
79.78
36.815
637.292
79.78
196.593
79.776
79.78
79.78
79.78
166.223
79.78
79.78
212.707
79.78
79.78
79.78
79.78
76.0144
79.78
79.7799
79.78
79.78
79.78
79.7871
79.78
79.78
79.78
79.78
79.78
79.78
79.78
79.78
299.561
79.78
79.78
79.78
79.78
327.992
79.78
79.78
79.5171
79.78
79.78
79.78
79.78
79.78
836.613
79.78
79.78
79.78
79.78
353.953
79.78
79.78
79.78
79.78
79.78
79.7495
79.78
79.78
79.78
456.245
36.8679
79.78
79.78
79.78
79.78
79.78
845.648
80.5848
80.1332
79.78
79.78
79.78
149.854
192.171
7.25318
79.78
79.78
79.78
501.437
80.0089
277.784
79.78
79.78
79.78
79.78
79.78
79.78
79.78
79.78
29.6283
7.87921
79.78
79.78
79.7798
79.78
79.7587
891
79.78
79.78
224.148
79.78
79.78
50.183
79.78
79.78
79.78
75.0856
124.115
113.682
79.78
79.78
156.435
122.647
79.78
77.9898
79.78
79.78
79.78
79.78
79.78
186.943
79.78
23.8605
79.78
281.674
79.7804
79.78
79.78
79.7835
79.78
74.7787
84.8026
79.78
126.343
79.78
807.827
79.78
79.78
227.356
79.78
943.556
51.4629
79.78
79.78
885.692
59.3311
79.7707
79.78
444.502
55.0503
231.993
6.67723
79.78
79.78
79.78
735.615
79.78
39.5127
79.78
79.78
79.78
79.78
79.78
73.4571
79.78
79.78
79.78
79.78
602.489
79.78
900.751
79.78
284.093
79.78
52.3236
79.78
79.78
79.78
412.752
45.9689
79.78
79.7786
79.78
79.78
79.78
79.78
79.78
79.78
79.78
79.78
202.49
79.78
685.308
79.78
79.78
79.78
41.5621
79.78
5.61317
76.9177
79.78
79.78
79.78
79.78
79.78
79.78
79.78
79.78
79.78
79.78
79.78
79.78
101.713
79.78
79.78
79.78
79.78
79.78
79.78
79.78
79.78
79.78
79.78
217.173
79.78
79.78
58.0383
27.3668
79.78
534.623
79.78
79.78
85.4906
20.6931
79.78
79.78
79.78
8.35791
79.78
79.78
79.78
79.78
79.8953
79.78
79.78
79.78
79.78
122.136
79.78
79.78
79.78
961.032
79.78
69.0223
79.78
79.78
828.923
79.78
79.78
79.78
79.78
79.78
79.78
756.28
79.78
557.514
332.184
79.78
79.78
90.7623
79.78
79.78
79.78
79.78
79.78
79.78
79.78
79.78
101.538
79.78
995.721
79.78
79.78
79.78
79.78
310.898
79.78
79.78
79.78
79.78
79.78
79.78
79.78
79.78
79.78
79.78
302.914
79.78
147.505
53.1525
79.78
79.78
531.916
79.78
79.78
79.78
134.328
79.78
79.78
79.7792
281.018
202.002
88.5973
79.7817
168.733
79.78
79.78
441.687
723.926
79.78
79.78
79.78
75.9346
37.7971
79.78
871.702
375.52
79.78
79.78
79.78
79.78
79.78
79.78
79.78
79.78
79.78
79.78
79.78
79.78
79.78
79.78
79.78
25.1809
79.78
262.151
79.941
60.4584
162.01
872.416
31.097
79.78
79.78
79.78
889.734
79.7775
79.7721
77.4811
79.78
112.143
79.78
79.78
222.96
79.78
79.78
79.7803
79.78
79.78
1003.76
65.4393
79.78
79.78
382.456
627.415
79.78
321.549
79.78
722.677
838.759
52.9242
79.78
320.602
79.78
155.761
79.78
79.78
79.78
79.78
79.78
341.742
79.78
79.78
55.1641
79.78
79.78
79.8499
11.506
79.78
79.78
79.78
79.78
79.738
79.78
79.0918
79.7159
79.78
79.7813
79.78
649.527
79.78
79.78
79.78
79.78
79.7659
92.9477
79.708
79.78
36.2888
652.733
10.9047
79.78
79.78
79.6812
79.78
79.78
79.78
79.78
4.90093
79.78
79.78
79.78
773.607
158.201
79.78
4.33118
79.78
79.78
79.78
79.7672
79.78
79.78
25.3018
79.78
444.136
98.0455
514.495
79.78
857.301
79.78
79.7802
79.78
79.78
79.78
79.78
79.78
438.875
79.78
79.78
79.78
73.6662
79.78
79.7608
79.78
79.78
79.78
79.78
79.7774
79.78
161.552
950.884
146.365
40.4613
79.7792
19.4651
935.604
68.6174
79.78
79.78
79.2708
68.0546
79.78
79.78
79.78
79.78
79.78
79.78
79.7801
79.78
79.78
79.7834
15.4163
79.78
79.78
79.7816
79.78
57.6167
79.78
863.192
804.421
79.78
313.022
79.78
79.7802
79.78
79.78
191.723
79.78
849.955
79.78
79.78
79.78
921.198
79.78
74.6829
79.78
79.78
79.78
79.78
39.556
79.78
6.11579
119.1
79.78
79.78
50.5873
79.78
79.78
79.78
79.78
79.78
79.78
79.78
79.78
79.7787
79.7402
79.78
79.78
79.78
79.78
79.78
712.429
79.78
79.78
79.78
79.78
79.78
79.78
79.78
79.78
79.78
23.9941
79.78
79.78
923.698
79.78
79.78
79.7562
80.0595
79.78
927.343
79.78
79.78
579.081
625.926
4.96325
79.78
49.5379
79.78
79.78
79.7431
538.35
38.9559
79.78
809.001
79.78
79.78
36.8104
79.78
434.441
79.78
77.6315
79.78
27.886
79.78
73.5402
79.78
79.78
419.601
76.5702
79.78
79.78
79.78
37.9241
79.78
79.78
79.78
79.7508
79.78
79.7801
79.78
79.78
28.9782
613.228
79.78
79.78
113.299
79.8773
79.78
300.2
64.6804
79.78
79.78
79.78
10.2215
79.78
79.78
575.078
25.2816
79.7844
79.78
65.4061
776.82
31.0608
79.78
79.78
79.78
636.071
79.78
79.78
79.78
79.78
79.78
79.78
79.78
141.249
79.78
79.78
37.7769
79.78
37.6195
79.78
577.108
30.6094
79.78
79.78
79.78
79.78
79.78
79.78
79.78
79.78
79.78
79.78
832.448
79.78
79.78
79.78
79.78
79.78
165.194
79.78
32.1294
79.78
79.78
887.292
692.306
655.861
79.78
79.7664
79.78
736.25
79.78
79.78
79.78
824.069
79.7361
79.78
79.78
35.6667
79.78
79.78
79.78
79.78
219.706
79.78
79.78
79.78
79.78
79.78
79.78
79.78
116.447
322.056
79.78
79.78
426.641
79.78
320.994
79.78
45.0539
123.791
79.78
79.78
79.78
79.78
79.78
79.78
79.78
632.25
79.78
79.78
49.9758
577.534
79.78
79.78
79.78
79.78
801.933
69.9353
79.7755
79.78
325.318
79.78
819.781
79.78
79.78
79.78
76.5441
166.043
79.78
79.78
46.0661
922.693
79.78
4.61418
79.78
10.2217
350.644
585.918
561.299
79.78
79.78
79.78
61.8188
757.578
765.368
79.7801
79.78
79.7802
79.9196
80.0787
79.78
79.78
79.78
7.84354
79.78
79.78
108.516
79.78
79.78
86.8511
408.575
79.78
30.6915
79.78
79.78
79.7806
661.591
79.78
79.78
79.78
79.78
79.78
79.78
87.3688
84.3603
79.78
79.78
79.78
79.78
79.78
79.7774
79.78
79.78
49.9931
79.78
80.7378
79.78
4.13312
79.78
79.78
79.78
51.7787
79.78
79.78
79.78
79.78
79.78
79.78
79.78
502.03
79.78
53.8214
216.272
798.096
79.78
79.78
79.78
79.778
79.78
79.7795
145.049
762.3
79.1839
79.78
236.016
79.7443
79.7585
79.78
79.78
79.78
79.8313
79.78
79.78
256.15
125.828
79.78
142.686
172.085
79.78
660.411
29.3889
79.78
79.3816
79.2413
79.78
79.78
380.236
79.7799
79.78
79.78
79.7798
172.644
79.78
79.78
49.0554
340.918
79.7799
79.78
93.5157
79.78
79.78
79.7021
79.78
395.556
79.78
40.5556
26.0145
79.78
79.78
79.78
79.78
79.78
79.8191
79.78
35.8785
6.42827
79.78
79.7714
79.78
79.78
79.78
79.78
79.78
79.7916
79.78
79.78
702.375
64.5457
79.78
850.454
79.7803
79.7658
79.78
7.43324
79.78
369.539
79.78
79.7709
79.78
79.7729
592.436
79.78
79.78
79.7786
79.78
79.78
79.78
57.1596
79.78
79.78
79.78
79.78
79.78
79.78
123.957
305.693
79.78
79.78
129.149
79.78
972.568
589.795
68.3146
79.78
79.78
79.78
31.6606
77.6922
79.78
79.78
78.888
79.78
159.078
154.081
79.78
79.78
79.78
79.78
135.692
79.78
79.78
619.897
79.7799
79.78
79.78
79.78
79.78
79.78
79.78
79.78
79.7795
79.78
79.78
441.821
78.8326
79.78
30.3383
79.78
121.995
80.2809
79.78
402.896
79.78
129.525
79.78
79.78
79.78
200.725
79.78
79.7615
79.78
55.8142
450.281
261.279
283.591
79.78
924.575
79.78
79.6883
79.78
27.8265
79.78
115.242
79.7801
13.3831
79.78
725.857
79.78
79.78
79.78
127.11
20.474
80.2631
79.78
79.78
754.443
81.4462
79.78
79.78
37.1184
79.78
220.421
848.59
79.78
79.78
79.78
79.78
79.78
79.78
79.78
79.78
79.7801
79.78
79.78
119.193
789.215
79.78
79.78
82.0182
750.617
114.768
79.78
111.526
77.2377
79.78
77.992
79.78
50.1502
79.78
79.78
606.396
53.7594
79.78
26.086
137.183
79.78
79.7461
771.28
79.78
79.78
79.78
79.78
79.78
428.912
79.78
558.608
780.851
79.78
79.78
117.162
14.3708
27.5013
79.78
79.78
374.946
36.1047
79.443
15.5764
13.3326
79.78
79.78
79.78
79.78
79.78
44.4626
79.78
79.78
79.78
79.78
79.78
335.136
839.652
79.78
300.552
450.331
79.78
79.1209
79.78
79.78
79.78
79.78
130.4
79.78
79.78
79.78
79.78
79.78
79.78
79.78
79.78
79.78
79.78
122.095
258.306
23.3106
79.7792
79.78
20.6779
25.7218
23.5123
513.85
79.78
297.143
79.7062
79.6551
105.262
28.1817
43.6581
79.78
79.8778
437.286
79.7529
79.78
109.449
79.7797
79.7799
19.2722
143.203
79.78
730.176
79.78
79.78
79.78
79.78
79.7791
212.787
79.78
79.78
79.78
79.78
79.78
79.78
79.78
79.7948
79.78
730.407
49.6637
79.78
79.78
21.5772
376.122
79.78
79.78
79.78
79.78
79.78
79.78
79.78
79.78
79.78
79.78
150.872
79.7806
79.78
79.78
79.78
79.78
79.78
79.78
77.7729
629.928
393.898
997.526
16.6805
79.78
79.78
79.78
79.78
66.0918
79.78
79.78
79.78
79.78
537.248
79.78
79.78
279.627
520.403
79.78
13.4755
79.78
25.3521
104.322
79.78
48.3844
79.78
79.78
79.78
79.78
79.78
79.78
81.5875
79.78
79.78
131.531
79.78
79.78
79.78
79.78
79.78
79.78
79.78
79.78
79.78
79.7797
79.78
477.579
79.78
79.78
79.78
79.78
61.315
79.78
79.78
483.471
79.78
7.95793
549.209
79.78
79.78
79.835
20.2903
242.913
79.78
552.025
79.5751
79.78
130.025
79.78
306.345
79.78
321.621
79.78
680.883
79.78
79.78
79.78
79.78
79.78
106.499
79.78
244.169
79.7816
79.78
12.9017
172.569
79.78
79.78
79.78
354.554
83.0256
79.78
79.78
49.5287
79.78
79.78
114.907
79.78
79.78
79.78
79.78
79.78
80.9183
120.422
608.706
79.7608
79.78
164.308
79.7758
207.863
79.78
64.747
34.0225
14.5126
79.78
306.846
696.782
79.78
77.9817
79.78
40.1197
79.78
70.0582
278.486
79.78
79.78
79.7704
79.78
915.108
79.78
79.7797
79.78
79.78
79.78
79.78
258.001
79.78
672.266
79.78
79.7778
79.78
79.7799
79.78
79.78
79.78
128.668
563.44
79.7796
763.099
20.3339
79.78
194.504
79.78
79.78
198.357
79.7801
79.78
664.436
79.78
79.78
79.78
246.411
306.099
79.78
79.78
79.78
79.78
79.78
78.1613
79.78
79.78
79.7802
79.78
107.419
199.769
79.78
594.65
170.094
79.78
171.764
59.753
79.7805
79.78
79.78
563.342
79.78
310.283
79.78
79.78
90.8971
79.78
87.7817
79.78
111.128
79.7544
79.78
79.78
79.78
79.78
79.78
104.702
72.0146
145.363
79.78
286.234
79.78
79.78
79.78
37.7146
79.78
79.78
79.78
103.174
93.0573
338.826
79.7821
79.78
79.7829
212.525
79.78
14.8486
79.78
129.896
80.073
290.377
544.878
79.78
54.2369
79.78
79.78
79.78
79.78
518.173
79.78
101.47
79.7773
79.78
79.7725
79.78
79.78
79.78
79.78
78.3272
79.78
79.78
955.273
27.7017
79.78
78.4408
79.78
412.413
79.78
79.78
524.224
63.7174
79.7802
235.096
414.016
26.5911
75.311
79.8892
79.78
79.78
79.78
58.9297
79.78
79.78
79.7799
79.78
79.78
79.78
79.78
79.78
105.977
79.78
79.78
364.752
358.455
33.9086
217.05
79.78
79.781
79.78
79.78
78.5487
79.78
79.78
79.78
79.78
79.78
79.78
79.7672
513.315
79.78
210.262
179.87
150.908
63.9512
79.78
186.7
79.2892
79.78
79.78
79.78
79.78
79.78
213.578
79.78
79.78
79.78
553.459
186.342
80.7329
79.78
4.69336
135.582
92.0191
243.381
79.78
79.78
79.7809
148.621
79.78
124.445
102.066
79.78
79.78
79.78
79.78
131.293
79.6168
4.95511
79.78
523.558
79.78
121.739
402.244
79.78
80.0424
79.78
79.78
206.913
79.78
79.78
79.78
79.78
79.78
721.897
79.78
79.78
79.78
79.78
86.6235
79.78
79.78
79.78
79.78
79.78
79.78
410.199
79.6033
79.78
154.783
84.8315
79.78
69.1128
79.78
80.253
79.78
79.78
339.707
79.78
79.78
79.78
863.792
205.263
79.78
79.78
79.78
80.1394
111.388
79.78
79.78
79.7837
231.283
79.78
143.523
79.78
79.78
79.4842
79.78
82.0966
79.9935
79.78
79.7779
79.78
79.78
97.9664
79.78
87.5382
79.7758
79.78
165.743
79.78
79.78
80.4496
89.4452
419.696
79.78
85.5281
78.3788
79.78
64.586
127.981
497.297
81.5854
115.281
508.989
79.7801
75.2291
98.8243
25.9746
257.804
91.7836
78.4434
457.701
79.78
158.556
79.78
79.7654
574.257
1004.67
79.78
275.817
79.78
79.78
537.936
79.78
79.78
79.78
784.406
79.78
79.78
79.78
79.78
79.78
110.745
79.78
104.378
20.7291
23.2093
79.78
79.78
671.196
79.78
29.8841
80.9688
76.5276
79.78
79.78
482.916
139.033
403.995
79.78
168.596
79.78
259.843
79.78
303.9
79.78
79.7803
79.78
79.78
79.78
79.78
79.78
79.78
57.2519
79.78
268.21
79.78
47.3952
79.78
334.376
79.7669
79.78
79.78
49.4111
79.7787
79.78
79.78
79.78
296.201
79.78
79.78
124.448
79.78
79.78
79.78
79.7805
79.78
79.7687
79.78
79.78
79.78
583.026
79.78
79.78
79.78
139.194
323.089
79.78
79.78
79.7801
947.01
463.787
79.78
79.78
426.967
79.78
79.78
79.78
79.78
77.808
473.958
79.78
89.301
79.7996
79.78
105.903
79.78
79.78
80.0011
121.173
79.7801
79.78
24.2264
79.78
79.78
79.78
231.455
26.3822
81.5619
79.78
79.78
79.78
76.3232
30.3826
79.78
79.78
80.626
79.78
79.78
275.449
32.1491
44.4103
79.944
79.78
290.97
79.78
79.78
390.977
120.464
223.102
79.78
79.78
79.7802
79.78
103.198
79.78
79.78
79.78
79.78
79.9955
205.924
79.78
79.78
40.1652
79.78
79.78
274.459
79.775
52.19
79.78
79.733
79.78
100.797
79.78
79.8035
79.78
83.3612
79.78
79.78
257.996
79.7798
31.8659
83.4845
79.78
78.0889
79.78
79.78
99.9141
62.7111
79.78
79.78
79.4788
309.278
102.243
49.7553
79.78
79.78
9.59038
76.6059
232.79
79.78
79.7787
79.78
79.7847
183.935
79.78
79.78
79.78
154.081
328.331
41.7928
35.8518
79.78
79.78
79.78
79.78
174.989
79.78
159.267
79.78
452.222
79.7805
245.271
110.427
79.78
79.78
471.452
577.954
168.611
73.6025
79.78
79.78
910.965
79.78
79.78
24.4795
78.4337
79.78
393.475
79.78
81.326
92.0117
79.7806
79.78
62.3067
103.429
79.78
79.78
79.78
79.78
120.526
79.78
514.724
79.7802
74.724
79.78
79.7799
79.78
79.78
79.78
21.1479
359.093
79.78
88.2998
79.78
79.78
79.7804
79.78
79.78
37.5112
79.78
79.78
7.60796
189.147
79.78
79.5695
79.78
79.7737
1017.33
79.78
80.1113
104.907
79.7807
79.78
79.78
79.78
79.78
79.78
79.78
125.262
79.78
79.78
786.405
79.78
79.78
272.324
79.78
72.3787
79.78
79.78
82.4196
37.2427
79.78
79.7818
77.6411
79.78
79.78
304.331
79.78
79.78
79.78
79.78
79.78
611.748
79.8016
79.78
79.8156
79.7527
98.2518
79.78
79.78
87.2553
218.053
79.78
79.779
79.78
79.78
489.943
7.71324
79.78
26.6088
79.78
79.78
79.78
81.4266
79.7645
117.217
79.7841
30.9116
79.78
200.926
202.414
79.7798
79.78
105.919
79.7462
79.78
136.661
79.78
42.9251
79.9193
79.7801
6.55167
104.796
79.78
203.416
5.17154
265.243
15.7895
79.78
85.2702
11.0062
79.78
79.78
152.133
79.78
53.7872
79.78
79.78
79.78
7.73917
167.017
189.219
79.78
79.78
79.78
79.78
79.78
82.0438
79.78
79.78
79.78
79.78
79.78
79.78
107.064
79.78
79.78
377.165
79.7662
79.78
162.794
137.973
697.445
79.2087
79.78
79.78
14.0291
79.78
79.8311
79.78
79.78
79.78
79.78
73.4761
79.78
503.273
79.78
79.78
79.78
79.78
79.78
445.649
79.78
79.78
79.78
79.78
79.78
117.757
79.78
79.78
79.78
79.78
79.78
79.78
79.78
79.7799
369.99
79.78
318.705
23.3513
79.78
80.0477
70.5453
200.19
79.781
32.127
71.3176
79.78
79.78
79.78
184.058
28.4115
77.0496
93.0327
81.695
79.78
79.78
79.78
79.78
342.579
79.78
79.78
79.78
79.8163
79.78
79.881
79.78
79.7521
79.78
644.453
79.78
79.78
79.78
211.077
79.78
79.7808
79.78
611.265
79.78
572.788
79.78
79.78
79.78
79.78
79.78
79.78
79.78
79.78
79.78
79.78
697.397
79.78
79.78
79.78
971.766
79.78
79.78
79.78
79.78
367.386
79.78
79.78
79.78
260.839
663.778
79.78
194.241
79.78
79.78
79.78
103.688
79.78
31.5484
79.78
107.716
38.7769
79.78
79.78
359.954
139.803
79.78
79.7794
205.418
79.78
79.78
79.78
79.78
79.78
79.7831
79.78
79.78
79.78
79.78
79.78
41.3049
79.7916
460.161
120.27
79.78
79.78
79.78
259.644
79.78
270.314
79.78
144.002
79.78
79.78
79.78
74.1258
132.323
79.78
79.78
79.78
109.55
79.78
66.3292
79.78
79.78
253.11
79.78
79.78
79.78
79.78
79.78
79.78
368.575
79.78
79.78
66.0119
837.664
79.78
79.78
79.78
79.78
79.78
80.0633
79.7806
755.88
83.7481
138.678
340.066
79.78
79.78
56.7295
15.14
79.78
79.78
79.7802
79.78
105.675
79.78
79.78
79.78
79.78
79.7812
79.78
79.78
79.78
254.942
600.432
79.78
79.78
79.78
79.78
79.78
79.78
113.08
79.78
79.78
79.78
79.78
79.78
672.319
95.9442
79.834
97.836
79.78
79.78
79.7541