/*--------------------------------*- C++ -*----------------------------------*\
| =========                 |                                                 |
| \\      /  F ield         | OpenFOAM: The Open Source CFD Toolbox           |
|  \\    /   O peration     | Version:  2406                                  |
|   \\  /    A nd           | Website:  www.openfoam.com                      |
|    \\/     M anipulation  |                                                 |
\*---------------------------------------------------------------------------*/
FoamFile
{
    version     2.0;
    format      ascii;
    arch        "LSB;label=32;scalar=64";
    class       volScalarField;
    location    "0.0001999544447";
    object      rho;
}
// * * * * * * * * * * * * * * * * * * * * * * * * * * * * * * * * * * * * * //

dimensions      [1 -3 0 0 0 0 0];

internalField   nonuniform List<scalar> 
17141
(
0.00102459
0.00102459
0.00102459
0.00102459
0.00102459
0.00102459
0.00102459
0.00102284
0.00102459
0.00102459
0.00102459
0.00102459
0.0032324
0.00102459
0.00102459
0.00102459
0.00102459
0.00102459
0.00102459
0.00102456
0.00102459
0.00102459
0.00102459
0.000979924
0.00102459
0.00102459
0.00102459
0.00102459
0.00102459
0.000763262
0.00102459
0.00102459
0.00102459
0.00102459
0.00227995
0.00101978
0.00102459
0.00102459
0.00102459
0.00102459
0.000993986
0.00102459
0.00102459
0.00400667
0.00102459
0.00102459
0.00102459
0.00101442
0.00102459
0.00102459
0.00102459
0.00102459
0.00102459
0.00102459
0.00102459
0.00102459
0.00102459
0.00102459
0.00102459
0.00102459
8.03849e-05
0.00102459
0.000819843
0.00102459
0.00102459
0.00102459
0.00102459
0.00102459
0.00102459
0.00102459
0.000818559
0.00125526
0.00102459
0.00102459
0.00102459
0.00102459
0.00102459
0.00102256
0.00102444
0.00102459
0.00102459
0.00102459
0.00102459
0.00102459
0.00102459
0.00293295
0.00102459
0.00069755
0.00102459
0.00102459
0.00102459
0.00102459
0.000614051
0.00102458
0.00102459
0.00102459
0.00102459
0.00102459
0.00102459
0.00102459
0.00102459
0.00102459
0.00102459
0.00102459
0.00102459
0.00398763
0.00102459
0.00102459
0.00102459
0.00102459
0.00146861
0.00102459
0.00102459
0.00102459
0.00102459
0.000962106
0.00102459
0.00102459
0.00102459
0.00102459
0.00102459
0.00102459
0.00102459
0.00102459
0.00102459
0.00102459
0.00102459
0.00102459
0.00102459
0.00102459
0.00102459
0.00102459
0.00098534
0.00102459
0.00102459
5.66164e-05
0.00110173
0.00102459
0.00102459
0.00113254
0.00102459
0.00102459
0.00102459
0.00102459
0.00297529
0.00102459
0.00349666
0.00102459
0.00102459
0.00102459
0.00102458
0.00102459
0.00102462
0.00102114
0.00102459
0.00102459
0.00102459
0.00102459
0.00102459
0.00102459
0.00102459
0.00102459
0.00102459
0.00102459
0.00102459
0.00102459
0.00234064
0.00102459
0.00102459
0.00102459
0.00102459
0.00102459
0.00102459
0.00102459
0.00335181
0.00102458
0.00057681
0.00283841
0.00102459
0.000530228
0.00102459
0.00102459
0.00102459
0.00102459
0.00286819
0.00162974
0.00102459
0.00102459
0.00102459
0.00102459
0.00102459
0.00102459
0.00102459
0.00102459
0.00285426
0.00102459
0.00190227
0.00102459
0.00102459
0.00102459
2.34445e-05
0.00102458
0.00102459
0.00102459
0.00102459
0.00116697
0.00149624
0.00102459
0.00102459
0.00102459
0.00100969
0.00102459
0.00102459
0.00102459
0.00134379
0.00102459
0.00102458
0.00102459
0.00102459
0.000966723
0.00102459
0.00102459
0.00102459
0.00102459
0.00102459
0.00102459
0.000346289
0.00102459
0.00102459
0.00102459
0.00102454
0.00102459
0.00102459
0.000579985
0.00102459
0.000994197
0.00102459
0.00102112
0.00102459
0.000346297
0.00102459
0.00102459
0.00332999
0.00102459
0.00102459
0.00102459
0.00102459
0.00102459
0.00102437
0.00102459
0.00102459
0.00102459
0.00098064
0.00102459
0.00102459
0.00102459
0.00102459
0.00102459
0.00102459
0.00102459
0.00102459
0.00102459
0.00102459
0.00102459
0.00316352
0.00102459
0.00102459
0.000834963
0.00102762
0.0032479
0.00102459
0.00102459
0.00102459
0.00102459
0.00102459
0.00102459
3.96719e-05
0.00102618
0.00102459
0.00102459
0.00252051
0.00102755
0.00102459
0.00102459
0.000527264
0.00102459
0.00102459
0.00102459
0.00372661
0.00102459
3.74792e-05
0.00102459
0.00102459
2.24985e-05
0.00102459
0.00102459
0.000837328
0.00102459
9.75975e-05
0.00102459
0.00102459
0.00102459
0.00102459
0.00102459
0.00102459
0.00231575
0.00102459
0.00102459
0.00102459
0.00102459
0.00102459
0.00102459
0.00102459
0.000370526
0.00102459
0.00140456
0.00102459
0.00102459
0.00102459
0.00255149
0.000547338
0.00102459
0.00102459
0.00102459
0.00102459
0.00102459
0.00102459
0.00102459
0.000288619
0.00102459
0.00309033
0.00102459
0.0022628
0.00102459
0.00102459
0.00102459
0.00102459
0.00102459
0.00102459
0.00102396
0.00102459
0.00102459
0.00327268
0.00102459
0.00102459
0.00102459
0.00102459
0.00102459
0.00385381
0.00102459
0.00102459
0.000341289
0.00102459
0.00102459
0.00102459
0.00102459
0.00102459
0.00102459
0.00102459
0.00255616
0.00102459
0.00102459
0.00102459
0.00102459
0.000865754
0.00102459
0.00102459
0.00102459
0.00102459
0.00237274
0.00102459
0.00102459
0.00102459
0.00231466
0.00102981
0.00102458
0.00102459
0.00279212
0.000136909
0.00107587
0.00102459
0.00209286
0.00102459
0.00102459
0.00102459
0.00139936
0.00102459
0.00102459
0.00102459
0.00102459
0.00102459
0.00102457
0.000827996
0.00102459
0.00102459
0.00057724
0.00102459
0.0034306
0.000674038
0.00102459
0.00102459
0.00102459
0.00102459
0.00102459
0.00101552
0.00102459
3.90452e-05
0.00102459
0.00102459
0.00102459
0.00102459
0.00102459
0.00191139
0.00102459
0.000545621
0.00102459
0.000667646
0.00235641
0.00102459
0.00102459
0.00328383
0.00102459
0.00102459
0.00102459
0.00102459
0.00102459
0.00102459
0.00102459
0.00331919
0.00102459
0.00102459
0.00102459
0.00102459
0.00102459
0.00102459
0.00102459
0.00102459
0.00102459
0.000996871
0.00102459
0.00102459
0.00102459
0.00102459
0.00102459
0.00102459
0.0012724
0.00102459
0.00102459
0.00102459
0.00103109
0.00102459
0.00102459
0.00102459
0.00102459
0.00146975
0.00102459
0.00102459
0.00102459
0.00102459
0.00102459
0.000643861
0.00102459
0.00102459
0.00141202
0.000521601
0.00357176
0.00102459
0.00102459
0.00102459
0.00102459
0.00102455
0.00102459
0.00102459
0.000584976
0.00102459
0.00102459
0.00102459
0.00102459
0.00102459
0.00102457
0.00102459
0.00102459
0.00102459
0.00102459
0.000889826
0.00195472
0.00102799
0.00102459
0.00102459
0.000152753
0.00102459
0.00102459
0.000560088
0.00102459
0.00102459
0.000787345
0.00102459
0.00284394
0.00246815
0.00179528
0.00102459
0.00102459
0.00102459
0.00338227
0.00102459
0.00102459
0.00102459
0.00102459
0.00240744
0.00102458
0.00102459
0.00102459
0.000519306
0.00102459
0.00102459
0.00102459
0.00384263
0.0010212
0.00102459
0.00102459
0.00102454
0.00102459
0.00102459
0.00102459
0.00102459
0.00102459
0.00102459
0.00102459
0.00102459
0.00102459
0.00248453
0.00102459
0.00102459
0.00102459
0.00102459
0.00102459
0.00102459
0.00188237
0.00102459
0.00102458
0.00102459
0.00102459
0.00102459
0.00102459
0.00102459
0.00102459
0.00102459
0.00102459
0.00102459
0.000922297
0.00102459
0.00102459
0.00102459
0.00102459
0.00102459
0.00102459
0.00102459
0.00102459
0.00102459
0.00102459
0.000703548
0.00102458
0.00102459
0.00156951
0.0018855
0.00102459
0.00102459
4.84377e-05
0.00218008
0.00102459
0.00102459
0.00289117
0.00102459
0.00102459
0.00102459
0.00102459
0.00102459
0.00102459
2.25573e-05
0.00102459
0.00102459
0.00102459
0.00102459
0.00102459
0.00017558
0.00102459
0.0025617
0.00102459
0.00140897
0.00102459
0.00102459
0.00102459
0.00374895
0.00247058
0.00102459
0.00357288
0.000672926
0.00102459
0.00102459
0.00132675
0.00102459
0.00102459
0.00102459
0.00102459
0.00102459
0.00102459
0.00102459
0.00102459
0.000737203
0.00336196
0.00102459
0.00102459
0.00102459
0.00102459
0.00102459
0.00102451
0.00102459
0.00102459
0.00102459
0.00102459
0.00102459
0.00216624
0.00102459
0.00102459
0.00090087
0.000708973
0.00102459
0.00102459
0.00102459
0.00102448
0.000816204
0.003333
0.00102459
0.00102459
0.00102459
0.00118549
0.00102459
0.00102459
0.00102459
0.00102459
0.00102459
0.00102459
0.00102459
0.00102459
0.00102459
0.00102459
0.00102459
0.00102459
0.00102459
0.00102459
0.00102459
0.00102459
0.00102459
0.00102459
0.00102459
0.00102459
9.46502e-05
0.00102459
0.00213081
0.00102459
0.00217141
0.00102459
0.00364659
0.00102459
0.00102459
0.00265933
0.00102459
0.00102459
0.00102459
0.00102459
0.000574138
0.00102459
0.00102459
0.00102459
0.00102459
0.000147205
0.000224532
0.00102459
0.00102459
0.00102459
0.00102459
0.00102459
0.00102459
0.00102459
0.00102459
0.00102459
0.00102459
0.00123158
0.00102459
0.00102459
3.25637e-05
0.00231313
0.00102459
0.00102459
0.00102459
0.00102459
0.00102459
0.00102459
0.00102459
0.000756823
0.00102459
0.00102459
0.00102459
0.00398038
0.00102459
0.00102459
0.00102459
0.00102459
0.00102459
0.00102459
0.00102459
0.00102459
0.00102458
0.00102459
0.0027362
0.00102459
0.00102459
0.00102459
0.00102459
0.00102459
0.000821796
0.00102459
0.00102459
0.00102459
4.72109e-05
0.00102459
0.00102459
0.000797854
0.00102459
0.00102459
0.00102459
0.00102459
0.00102459
0.00102459
0.00102459
0.00102459
0.00338829
0.00102459
0.00102459
0.00273963
0.00102459
0.00102459
0.00102459
0.00102459
0.00102459
0.00102459
0.00102459
0.00102459
0.0023469
0.00102459
1.84514e-05
0.00108337
0.00102459
0.00102459
0.00102459
0.0031234
0.00129972
0.00102459
0.00102459
0.00102459
0.00102459
0.00102459
0.00102459
0.00102459
0.00401903
0.00102459
0.00102459
0.00102459
0.00102459
0.00241802
0.00102459
0.00102459
0.00102458
0.00102459
0.00102459
0.00102399
0.00102459
0.00102459
0.00102459
0.00102459
0.00102459
0.00120624
0.00102459
0.00322661
0.00102459
0.00102459
0.00102459
0.00102459
0.00102459
0.00102459
0.00102459
0.000983933
0.0022975
0.00102459
0.00102459
0.00102459
0.00102459
0.00102459
0.00102459
0.00102459
0.00102459
2.00594e-05
0.00102459
0.00102459
0.00102459
0.0014797
0.00102459
0.00102459
0.00100973
0.00102459
0.000949567
0.00102459
0.00102459
0.000863211
0.00102459
0.00409592
0.00102459
0.00102459
0.00102459
0.000782536
0.00102459
0.0012569
0.00102459
0.00102459
0.00102459
0.00153633
0.00102459
0.00102459
0.00102459
0.00102459
0.00102459
0.000758921
0.00102459
0.00102459
0.00145589
0.00102459
0.00102459
0.00102459
0.000902959
0.00102459
0.00102455
0.00102459
0.00102459
0.000662003
0.00102459
0.00102459
0.00102458
0.00102459
0.00102459
0.00266781
0.00102459
0.00102459
0.00102459
0.00102459
0.00102459
0.00102459
2.83631e-05
0.000879711
0.00102459
0.000968536
0.00102459
0.00102459
0.00102459
0.00102459
0.00102459
0.00102459
0.00102458
0.00102459
0.00102459
0.00102459
0.00102459
0.000443988
0.00102459
0.00158719
0.00100991
0.00102459
0.000493726
0.00102459
0.00102459
0.00102459
0.00102459
0.00102459
0.000258054
0.00102459
0.00102459
0.00102459
0.00102459
0.00176688
0.00102459
0.00102459
0.00102459
0.00102459
0.00102457
0.00102459
0.00197498
3.60584e-05
0.00234991
0.000103101
0.00102459
0.00284205
0.00102459
0.00106527
0.00102459
0.000734842
0.00102459
0.00102459
0.000617672
0.00278295
0.00328648
0.00102459
0.00102459
0.00102459
0.00102459
0.00102459
0.00222277
0.00364043
0.00102459
0.00102459
0.00102459
0.00102459
0.00102459
0.00102459
0.00102459
0.00102459
0.00102459
0.00102459
0.00102459
0.00102459
0.00102459
0.00198952
0.00102459
0.00102459
0.00102459
0.00102459
0.00102459
0.00102459
0.00102459
0.00222643
0.00102459
0.00102459
0.000398206
0.00177034
0.00195069
0.00102459
0.00102459
0.00102459
2.50967e-05
0.00102459
0.00102459
0.00102459
0.00102459
0.00102459
0.00102459
0.00102459
0.000968327
0.00102459
0.00102459
0.00102459
0.000454389
0.00102459
0.000498428
0.00102459
0.00102459
0.000982299
0.00102459
0.00102459
0.00102459
0.000785909
0.000431674
0.00102459
2.19428e-05
0.00102458
0.00102459
0.00102459
0.00102459
0.00102459
0.00102459
0.00102915
0.000214865
0.00102459
0.00102459
0.00102499
0.00102457
0.000609651
0.00102459
0.00102078
0.00102459
0.00102459
5.601e-05
0.00102459
0.00102457
0.00102459
0.00102459
0.00102459
0.00102459
0.000310859
0.00102459
0.00102459
0.00102459
0.00102459
0.00102459
0.00102459
0.00102459
0.00102459
0.00102459
0.00133325
0.00302163
0.00102459
0.00102459
0.000924146
0.00102459
0.00102459
0.00102459
0.000848154
0.00102459
0.00102459
0.00102459
0.00102459
0.00369358
0.00201891
0.000847738
0.000671764
0.000417358
0.00102459
0.00102459
0.00102459
0.00102459
0.00102459
0.00102459
0.00102691
0.00102459
0.00102459
0.00102458
0.00400488
0.00404207
0.00102459
0.00375773
0.00279029
0.00102459
0.00102459
0.00102459
0.00102459
0.00102459
0.000525711
0.00102459
0.00102459
0.00102459
0.00102458
0.00102459
0.000878505
0.00102459
0.00102459
0.00102459
0.00102459
0.00102459
0.000145718
0.00102459
0.00102459
0.00102459
0.00102459
0.00102459
0.00102459
0.00102459
0.00102459
0.00102231
0.00102459
0.00102459
0.000607634
0.00101238
0.000212433
0.00179371
0.00102459
0.00102459
0.00102459
0.00102459
0.00102459
0.00102459
0.000119577
0.00102459
0.000799364
0.00102459
0.00102459
0.00102459
0.00102459
0.000144536
0.00102459
0.00102459
0.00102459
0.00151406
0.00102459
0.00102459
0.00382944
0.00102459
0.00102459
0.00102459
0.00102459
0.00102459
0.00102459
0.000434601
0.00102459
0.00102459
0.00102458
0.00102459
0.00102459
0.00102459
0.00102459
0.00102459
0.00102459
0.00102459
0.00102459
0.00102459
0.00102459
0.00102459
0.00102459
0.00102459
0.00102459
0.000282568
0.00102459
0.00102459
0.00102459
0.00102459
0.00101827
0.00102459
0.00101521
0.000583582
0.00102459
0.00102459
0.00102459
0.000800252
0.00102459
0.00102459
0.00102459
0.00102459
0.00237919
0.00102459
0.00102459
0.00102459
0.00102577
0.00102459
0.00154911
0.00102459
0.00102459
0.00102459
0.00102459
0.00102459
0.00102459
0.00102459
0.00102473
0.000968906
0.00102459
0.00102459
0.00102459
0.00102459
0.00102459
0.0010229
0.00337151
0.00102459
0.00102498
0.00102459
0.00307546
0.00102459
0.00102459
0.00102459
0.00102459
0.000513444
0.000787698
0.00102459
0.00102459
0.00102459
0.00102459
2.25707e-05
0.00102459
0.00102459
0.00266851
0.00188328
0.00102459
0.00102459
0.00102459
0.00102459
0.00102459
0.00102456
0.00114064
0.00102459
0.00173321
0.00102459
0.00102459
0.00102459
0.00102459
0.00102459
0.00102459
0.00102459
0.00102459
0.00102459
0.00102459
0.00102459
0.00102459
0.000996316
0.00102459
0.00102459
0.00102459
0.00102459
0.00141937
0.00123579
0.000869286
0.00102459
0.00102459
0.00102459
0.00271441
0.00102459
0.000440754
0.00102459
0.00286449
0.00102459
0.00114857
0.000440597
0.00411983
0.00102459
0.00125519
0.00102459
0.00102459
0.00102459
0.00102459
0.00102459
0.00102459
0.00102459
0.00102459
0.00407728
0.00102459
0.000656966
0.00102458
0.00102459
0.00102459
0.00102459
0.00102459
0.00102459
0.000892549
0.00102459
0.00102459
0.00102459
0.00102459
0.00102459
0.000474
0.00102459
0.00102459
0.00102459
0.0010246
0.00102459
0.00102459
0.00351382
0.00102459
0.00102459
0.00102459
0.00102459
0.00102459
0.00102459
5.06447e-05
0.00102459
0.00102459
0.00279254
0.00102459
0.0010243
0.000712741
0.00102459
0.00102459
0.00102441
0.00102459
0.00102459
0.00221853
0.00102459
0.00102459
0.00102459
0.00102459
0.00102459
0.00102459
0.00102459
0.00102459
0.00102459
0.00102444
0.00102459
0.00102459
0.00102459
0.00102459
0.000542543
0.00102459
0.00338493
0.00102459
0.00102459
0.00102459
0.00102459
0.00102459
0.000686583
0.00102459
0.00102459
0.00102459
0.00332205
0.000470676
0.00102459
0.00102459
0.00078828
0.00102459
7.27547e-05
0.00102459
0.000989073
0.00102459
0.00102459
0.000631375
0.00102459
0.00102459
0.00102459
0.00102459
0.00274653
0.000981762
0.00102459
0.00102459
0.00069975
0.00254683
0.00102464
0.00102459
0.00117656
0.00099654
0.00102459
0.00182861
0.00102459
0.00102459
0.00102459
0.00102459
0.00102459
0.00102459
0.00102459
0.00102459
0.00151675
0.00102459
0.00102459
0.00102459
0.00102459
0.00102459
0.00235267
0.00102459
0.00102459
0.00102459
0.00102459
0.00102459
0.000812782
0.00102459
0.00059041
0.00102459
0.00102459
0.00102459
0.00102459
0.00102459
0.00102459
0.00102459
0.00102459
0.00102459
0.00102459
0.00039525
0.00102459
0.00102459
0.00101609
0.00102459
0.000901157
1.9597e-05
0.00102459
0.00102459
0.00102459
0.00102459
0.00102459
0.00102459
0.00102459
0.00102459
0.00102459
0.00102459
0.00168443
0.00102459
0.000852126
0.00102459
0.00284479
0.00102459
0.00102459
0.00239916
0.00102459
0.00102459
0.00102459
0.00144866
0.0010246
0.00102459
0.00102459
0.00102381
0.00219874
0.00102459
0.00102459
0.00020516
0.00102459
0.00102459
0.00102459
0.00196374
0.00102459
0.00040669
0.00102459
0.00102459
0.00102459
0.00102459
0.00102459
0.00102459
0.00102459
0.00102459
0.00102459
0.00102459
0.00102459
0.00102459
0.00102467
0.00102459
0.00102459
0.00102459
0.00102459
0.000326717
0.000202856
0.00102459
0.00102459
0.00102459
0.001575
0.000818132
0.00102459
0.00102459
0.00102459
0.00102459
0.00102459
0.00102459
0.00081355
0.00213972
0.00102459
0.00102459
0.00102459
0.00102459
0.00102459
0.00102459
0.00102459
0.00102459
0.00102459
0.00102459
0.00102459
0.00102459
0.0037678
0.00102459
0.00102459
0.00102459
0.00102459
0.00102459
0.00102459
0.000800111
0.00102459
0.00102459
0.00102459
0.00102459
0.00102459
0.00104052
0.00102459
0.00204433
0.00102459
0.00102459
0.00102459
0.00076472
0.00102459
0.00102459
0.00102459
0.00102459
0.00102459
0.00102459
0.00153653
0.000485337
0.00102459
0.00102459
0.00102459
0.00102459
0.00171227
0.00102459
0.00102428
0.00157735
0.00102459
0.00102459
0.00102459
0.00102459
0.00102459
0.00102459
0.00102459
0.00102459
0.00102459
7.17771e-05
0.00102459
0.00102459
0.00102459
0.00102459
0.00102459
0.000998543
0.00102459
0.00102459
0.00102459
0.00102459
0.00102459
0.00102457
0.00102459
0.00102459
0.00102459
0.00102459
0.00102459
0.00102459
0.0010246
0.00102459
0.00102459
0.00300889
0.00102459
0.00102459
0.00102459
0.000328211
0.00170869
0.00102459
0.00102459
0.00102459
0.00102459
0.00102459
0.00102287
0.00102459
0.000645572
0.00102459
0.000478186
0.00102459
0.00102459
0.00297172
0.00102459
0.00102455
0.00101568
0.00102459
0.00100707
0.00102459
0.00102459
0.00102459
0.00102459
0.00102459
0.000518935
0.00102459
0.00102411
0.00102459
0.00102459
0.00102459
0.00102459
0.00102459
0.00102459
0.00102459
0.00102459
0.00102459
0.00102459
0.00102459
0.00102459
0.00102459
0.00102459
0.00102459
0.00379723
0.00102459
0.00102459
0.00102459
0.00220127
0.00102459
0.00102459
0.000200866
9.23455e-05
0.00102459
0.00228347
0.00102459
0.00102459
0.00102459
0.00102459
0.000760377
0.00102459
0.00265993
0.00102459
0.00102459
0.00175357
0.00102459
0.00102459
0.00188693
0.00102459
0.00143809
0.00102459
0.00102459
0.00102459
0.00147041
0.00102459
0.00102459
0.00102459
0.00102459
0.000308146
0.00102459
0.00271258
0.00102459
0.00102459
0.00102459
0.00102459
0.00102459
0.00198409
0.00102459
0.00102459
0.00102459
0.00102459
0.00102459
0.00102459
0.00102459
0.00102459
0.00102459
0.000997838
0.00102459
0.00102459
0.00100367
0.00102459
0.00102459
0.00102459
0.00102459
0.00102459
6.22122e-05
0.00102459
0.00102461
0.00102459
0.00102459
0.00102459
0.00102459
0.00102459
0.00102459
0.00102459
0.00102099
0.00118655
0.00095561
0.00102459
0.00100351
0.00102459
0.00102462
0.00102459
0.00102459
0.00102459
0.00173295
0.00102459
0.000916518
8.99575e-05
0.00102459
0.00102459
0.00102479
0.00102459
0.000978593
0.00102459
0.00102459
0.00102459
0.00102459
0.000536556
0.000967827
0.00102459
0.00322546
0.00102463
0.00102459
0.00102459
0.00102459
0.00102459
0.00102459
0.00102459
0.00102459
0.00102459
0.00102459
0.00102459
0.00102459
0.00102462
0.00102459
0.00102459
0.00102459
0.00102459
0.00102459
0.00102459
0.00102459
0.000687884
0.00102459
0.00180375
0.00102459
0.00102459
0.00102459
0.00102459
0.00102459
0.00102459
0.00102459
0.00102459
0.00221932
0.00103642
0.00102459
0.00102459
0.000509265
0.00102459
0.000637361
0.00102458
0.00250237
0.00102459
0.00102459
0.00102459
0.00048435
0.00223823
0.000142692
0.00157628
0.000943599
0.000879755
0.00102459
0.000601097
0.00102459
0.00102459
0.00102439
0.00102459
0.00102377
0.00102459
0.00102459
0.00102459
0.00102459
0.00102459
0.00102315
0.00102459
0.00102459
0.00102459
0.00102459
0.000760161
0.00404232
0.00102459
0.0010245
0.00157932
0.00102459
0.00102459
0.00102459
0.00102459
0.00102459
0.00102459
0.00102459
0.000807451
0.00102459
0.000560861
0.00209213
0.00102459
0.000512003
0.00102459
0.00102459
0.000718928
0.00102459
0.00102459
0.00102459
0.000803782
0.00102459
0.000333701
0.00102459
0.00102459
0.00102459
0.00102459
0.00102459
0.00102459
0.00102459
0.00102459
0.00102459
0.0038063
0.00102459
0.00102459
0.00102459
0.00228262
0.00102436
0.00102459
0.00399672
0.00102459
0.000445406
0.00102459
0.00102459
0.00102459
0.00102459
0.00102459
0.00102459
0.00102459
0.00102459
0.00102459
0.000384454
0.00238008
0.00102459
0.000695198
0.00102459
0.00102459
0.00102459
0.00102459
0.00102459
0.00102459
0.00102449
0.00176551
0.00102459
0.00102459
0.00102459
0.00102459
0.00102459
0.00102459
0.00102459
0.00261255
0.00102353
0.00102459
0.00102459
0.00102459
0.00102459
0.00102459
0.00102459
0.00102459
0.00102459
0.00102459
0.00102459
0.00102467
0.00293666
0.00102459
0.00102459
0.000375859
0.00102459
0.00102459
0.00102459
0.00102459
0.00102459
0.00109696
0.00102459
0.00102459
0.00102459
0.00292987
0.00102459
0.00102459
0.00102459
0.00102459
0.00102459
0.00102459
0.000904634
0.00127334
0.000289844
0.00066964
0.00102459
0.00102459
0.00102455
0.00102459
0.00102459
0.000927734
0.00367676
0.00102459
0.00102459
0.00102459
0.00190141
0.00102459
0.00102459
8.76882e-05
0.00102459
0.000800137
0.00102459
0.00102459
0.00102459
0.00102459
0.00260648
0.00102459
0.00042422
0.00102459
0.00102459
0.00102459
0.00102459
0.00102459
0.00102459
0.00102459
0.00102459
0.00102459
0.00102459
0.00102459
0.00102459
0.00102459
0.00416406
0.000510861
0.00102459
0.00102459
0.000579169
0.00102459
0.00102459
0.00102471
0.00102459
0.00102459
0.00102459
0.00102459
0.00102459
0.00159609
0.0031084
0.000546419
0.00102459
0.00102459
0.00102459
0.00102459
0.00102459
0.00233287
0.00102459
0.00102459
0.00102459
0.00102459
0.00102459
0.000259392
0.00102459
0.00102459
0.00102459
0.00102459
0.00102459
0.00102459
0.00102459
0.000661366
0.00102459
0.00148724
0.0009742
0.00102459
0.00102459
0.00102458
0.00155613
0.00102459
0.00102459
0.00102459
0.00102459
0.00102459
0.00149285
0.00102459
0.00101677
0.00102459
0.00102459
0.00102956
0.000408697
0.00102459
3.71934e-05
0.00102459
0.00334316
0.00116602
0.00102459
0.00102845
0.00102459
0.00369536
0.00102459
0.00102459
0.00323782
0.00102459
0.00102459
0.00102459
0.00102459
0.00102459
0.00251637
0.00102459
0.00102459
0.00102459
0.00102459
0.00102459
0.00102459
0.00102459
0.00102459
0.00102459
0.00102459
0.00102459
0.00102459
0.00102459
0.00098701
0.00102459
0.00102459
0.00102459
0.00102459
0.00102711
0.00102459
0.00102459
0.000570939
0.00102459
0.00102459
0.00102459
0.00279377
0.00102459
0.00102459
0.000600101
0.00102459
0.000495925
0.00102459
0.00158479
0.00102459
0.00102459
0.000530328
0.00102459
0.00381947
0.00102459
0.00290878
0.00102459
0.00102459
0.00102459
0.00102459
0.00101268
0.0010246
0.000968467
0.00102459
0.00102459
0.00102459
0.00102459
0.00368035
0.00102459
0.00102459
0.00102459
0.00102459
0.000564613
0.00102459
0.0011909
0.00102459
0.00102459
0.00345911
0.00102459
0.0010245
0.00102459
0.00102459
0.00102459
0.00103095
0.00102459
0.00102459
0.000982026
0.00102459
0.00102459
0.00102459
0.000991408
0.00102459
0.00102459
0.00102459
0.00102459
0.00102459
0.00102459
0.00102459
0.00102459
0.00102459
0.00102555
0.00102459
0.00102459
0.00102459
0.00102459
0.00102459
0.00102459
0.00179384
0.00261991
0.00102459
0.00102459
0.00102459
0.000626269
0.00102459
0.00102459
0.00329563
0.00102459
0.00102459
2.79264e-05
0.00102459
0.00102459
0.00102459
0.00102459
0.00102458
0.00102459
0.00102459
0.00102459
0.00102459
0.00102459
0.00102459
0.00102459
0.00102459
0.00102459
0.000852498
0.000583744
0.00179981
0.00102459
0.00102459
0.00102459
0.000440627
4.21561e-05
0.00102459
0.00102459
0.00102767
0.00259086
0.00297412
0.00102459
0.00102459
0.00102459
0.00285736
0.00102459
0.00126301
0.00102459
0.00102459
0.00102438
0.00102459
0.00102459
0.00102459
0.00102459
0.000264964
0.0010163
0.00102459
0.00102459
0.00102459
0.00354302
0.000641165
0.000286658
0.00102459
0.000469752
0.00102459
0.000391924
0.00360696
0.00102459
0.00102459
0.00102459
0.000648204
0.00102459
0.00102459
0.000370932
0.00102422
0.00102459
0.00102459
0.000806676
0.00353559
0.00102459
0.00102459
0.00102456
0.00102459
0.00102459
0.00102459
0.00102459
0.00102459
0.00102459
0.00139128
0.00102459
0.00102459
0.00102459
0.00102459
0.00279836
0.00102459
0.00262456
0.00102459
0.00102459
0.000904621
0.00102459
0.00102459
0.00102459
0.00102459
0.00102459
0.000986149
0.00102459
0.00102459
0.000323244
0.00102459
0.00102459
0.00102463
0.00102459
0.00102459
0.00102459
0.00101677
0.00102459
0.00102459
0.00102459
0.00102459
0.00102459
0.000673933
0.00102459
0.00102459
0.00102467
0.000455543
0.00102459
0.00102459
0.00105988
0.00102459
0.00102459
0.00102459
0.00102459
0.00102459
0.000497869
0.00102459
0.00102459
0.00102189
0.00102459
0.00237494
0.00102459
0.00102459
0.00102459
0.00102459
0.00102459
0.00102459
0.000424274
0.00102459
0.00102459
0.00102459
0.00102806
0.00102459
0.000585709
0.00288954
0.00102459
0.00164811
0.00102456
0.00102459
0.00102459
0.00102459
0.00154552
0.00102459
0.00102459
0.00111889
0.00102459
0.00102459
0.00102459
0.00102459
0.0010134
0.00102459
0.00102459
0.00102459
0.00102459
0.00102459
0.00102457
0.00102459
0.00102459
0.00102459
0.00102459
0.00102459
0.00102459
0.00102459
0.00102459
0.00165274
0.00102459
0.00102459
0.00102459
0.00102459
0.00209016
0.00102459
0.00102459
0.00102218
0.00102459
0.00102459
0.00102459
0.00102459
0.00102459
0.0036677
0.00102459
0.00102459
0.00102459
0.00102459
0.00226022
0.00102459
0.00102459
0.00102459
0.00102459
0.00102459
0.00102448
0.00102459
0.00102459
0.00102459
0.00289023
0.000585198
0.00102459
0.00102459
0.00102459
0.00102459
0.00102459
0.00355415
0.00103183
0.00102807
0.00102459
0.00102459
0.00102459
0.00143821
0.00135911
4.09858e-05
0.00102459
0.00102459
0.00102459
0.00286885
0.00102681
0.00162722
0.00102459
0.00102459
0.00102459
0.00102459
0.00102459
0.00102459
0.00102459
0.00102459
0.000498626
3.56268e-05
0.00102459
0.00102459
0.00102459
0.00102459
0.00102443
0.00385411
0.00102459
0.00102459
0.00155238
0.00102459
0.00102459
0.000733034
0.00102459
0.00102459
0.00102459
0.000981103
0.00138666
0.000738937
0.00102459
0.00102459
0.00146683
0.00106745
0.00102459
0.00100814
0.00102459
0.00102459
0.00102459
0.00102459
0.00102459
0.00158923
0.00102459
0.000400461
0.00102459
0.00167894
0.00102459
0.00102459
0.00102459
0.00102462
0.00102459
0.000991274
0.00106667
0.00102459
0.00120045
0.00102459
0.00362385
0.00102459
0.00102459
0.00193488
0.00102459
0.00391888
0.000353117
0.00102459
0.00102459
0.00394223
0.000827841
0.0010245
0.00102459
0.00283073
0.000784064
0.001424
2.86168e-05
0.00102459
0.00102459
0.00102459
0.00335228
0.00102459
0.000620372
0.00102459
0.00102459
0.00102459
0.00102459
0.00102459
0.000965798
0.00102459
0.00102459
0.00102459
0.00102459
0.00277943
0.00102459
0.0037414
0.00102459
0.00184679
0.00102459
0.000755875
0.00102459
0.00102459
0.00102459
0.00283487
0.000688681
0.00102459
0.00102457
0.00102459
0.00102459
0.00102459
0.00102459
0.00102459
0.00102459
0.00102459
0.00102459
0.00176065
0.00102459
0.00336651
0.00102459
0.00102459
0.00102459
0.000639632
0.00102459
2.75759e-05
0.000998171
0.00102459
0.00102459
0.00102459
0.00102459
0.00102459
0.00102459
0.00102459
0.00102459
0.00102459
0.00102459
0.00102459
0.00102459
0.00117877
0.00102459
0.00102459
0.00102459
0.00102459
0.00102459
0.00102459
0.00102459
0.00102459
0.00102459
0.00102459
0.00128671
0.00102459
0.00102459
0.000814888
0.000374962
0.00102459
0.00255162
0.00102459
0.00102459
0.00087608
0.000188834
0.00102459
0.00102459
0.00102459
3.98556e-05
0.00102459
0.00102459
0.00102459
0.00102459
0.00102418
0.00102459
0.00102459
0.00102459
0.00102459
0.00130696
0.00102459
0.00102459
0.00102459
0.00374755
0.00102459
0.000923464
0.00102459
0.00102459
0.00364122
0.00102459
0.00102459
0.00102459
0.00102459
0.00102459
0.00102459
0.00352268
0.00102459
0.00275906
0.00250504
0.00102459
0.00102459
0.00109848
0.00102459
0.00102459
0.00102459
0.00102459
0.00102459
0.00102459
0.00102459
0.00102459
0.000676266
0.00102459
0.0041229
0.00102459
0.00102459
0.00102459
0.00102459
0.0023699
0.00102459
0.00102459
0.00102459
0.00102459
0.00102459
0.00102459
0.00102459
0.00102459
0.00102459
0.00102459
0.00239795
0.00102459
0.00140493
0.000575756
0.00102459
0.00102459
0.00257896
0.00102459
0.00102459
0.00102459
0.0011927
0.00102459
0.00102459
0.00102458
0.00211264
0.00183012
0.00109657
0.0010246
0.00159929
0.00102459
0.00102459
0.00232906
0.00360881
0.00102459
0.00102459
0.00102459
0.000988985
0.000588118
0.00102459
0.00378321
0.00261038
0.00102459
0.00102459
0.00102459
0.00102459
0.00102459
0.00102459
0.00102459
0.00102459
0.00102459
0.00102459
0.00102459
0.00102459
0.00102459
0.00102459
0.00102459
0.000429278
0.00102459
0.00178545
0.00102439
0.00082686
0.00155912
0.00372402
0.00051684
0.00102459
0.00102459
0.00102459
0.00389575
0.00102457
0.00102452
0.00100341
0.00102459
0.000798322
0.00102459
0.00102459
0.00107597
0.00102459
0.00102459
0.00102459
0.00102459
0.00102459
0.00385713
0.000688778
0.00102459
0.00102459
0.00185791
0.00301727
0.00102459
0.00200506
0.00102459
0.00307374
0.00381786
0.000762095
0.00102459
0.00209846
0.00102459
0.00155655
0.00102459
0.00102459
0.00102459
0.00102459
0.00102459
0.00162265
0.00102459
0.00102459
0.000785053
0.00102459
0.00102459
0.00102521
0.000174289
0.00102459
0.00102459
0.00102459
0.00102459
0.00102435
0.00102459
0.00101828
0.001024
0.00102459
0.0010246
0.00102459
0.00332501
0.00102459
0.00102459
0.00102459
0.00102459
0.00102446
0.00112143
0.00102393
0.00102459
0.00057884
0.00313506
0.000177371
0.00102459
0.00102459
0.00102368
0.00102459
0.00102459
0.00102459
0.00102459
2.14614e-05
0.00102459
0.00102459
0.00102459
0.0037037
0.00122109
0.00102459
3.08801e-05
0.00102459
0.00102459
0.00102459
0.00102447
0.00102459
0.00102459
0.000431699
0.00102459
0.00266209
0.00113598
0.002383