/*--------------------------------*- C++ -*----------------------------------*\
| =========                 |                                                 |
| \\      /  F ield         | OpenFOAM: The Open Source CFD Toolbox           |
|  \\    /   O peration     | Version:  2406                                  |
|   \\  /    A nd           | Website:  www.openfoam.com                      |
|    \\/     M anipulation  |                                                 |
\*---------------------------------------------------------------------------*/
FoamFile
{
    version     2.0;
    format      ascii;
    arch        "LSB;label=32;scalar=64";
    class       volScalarField;
    location    "0.0001999544447";
    object      T;
}
// * * * * * * * * * * * * * * * * * * * * * * * * * * * * * * * * * * * * * //

dimensions      [0 0 0 1 0 0 0];

internalField   nonuniform List<scalar> 
17141
(
270.65
270.65
270.65
270.65
270.65
270.65
270.65
488.991
270.65
270.65
270.65
270.65
665.198
270.65
270.65
270.65
270.65
270.65
270.65
270.647
270.65
270.65
270.65
265.881
270.65
270.65
270.65
270.65
270.65
286.743
270.65
270.65
270.65
270.65
446.684
270.137
270.65
270.65
270.65
270.65
267.382
270.65
270.65
892.447
270.65
270.65
270.65
269.567
270.65
270.65
270.65
270.65
270.65
270.65
270.65
270.65
270.65
270.65
270.65
270.65
318.425
270.65
383.422
270.65
270.65
270.65
270.65
270.65
270.65
270.65
247.865
376.176
270.65
270.65
270.65
270.65
270.65
270.432
270.657
270.65
270.65
270.65
270.65
270.65
270.65
689.263
270.65
279.56
270.65
270.65
270.65
270.65
220.705
270.649
270.65
270.65
270.65
270.65
270.65
270.65
270.65
270.65
270.65
270.65
270.65
886.915
270.65
270.65
270.65
270.65
387.232
270.65
270.65
270.65
270.65
263.978
270.65
270.65
270.65
270.65
270.65
270.65
270.65
270.65
270.65
270.65
270.65
270.65
270.65
270.65
270.65
270.65
266.449
270.65
270.65
365.951
494.218
270.65
270.65
517.866
270.65
270.65
270.65
270.65
785.047
270.65
842.707
270.65
270.65
270.65
270.649
270.65
265.179
270.282
270.65
270.65
270.65
270.65
270.65
270.65
270.65
270.65
270.65
270.65
270.65
270.65
444.325
270.65
270.65
270.65
270.65
270.65
270.65
270.65
833.67
270.649
264.169
685.792
270.65
212.174
270.65
270.65
270.65
270.65
673.049
338.95
270.65
270.65
270.65
270.65
270.65
270.65
270.65
270.65
783.224
270.65
472.705
270.65
270.65
270.65
643.087
270.649
270.65
270.65
270.65
287.829
322.993
270.65
270.65
270.65
269.063
270.65
270.65
270.65
488.675
270.65
270.649
270.65
270.65
264.445
270.65
270.65
270.65
270.65
270.65
270.65
602.607
270.65
270.65
270.65
270.645
270.65
270.65
216.072
270.65
267.413
270.65
270.28
270.65
615.052
270.65
270.65
842.206
270.65
270.65
270.65
270.65
270.65
270.651
270.65
270.65
270.65
480.68
270.65
270.65
270.65
270.65
270.65
270.65
270.65
270.65
270.65
270.65
270.65
813.751
270.65
270.65
377.568
270.766
804.284
270.65
270.65
270.65
270.65
270.65
270.65
748.315
270.827
270.65
270.65
501.005
270.953
270.65
270.65
256.214
270.65
270.65
270.65
854.913
270.65
559.722
270.65
270.65
668.047
270.65
270.65
250.056
270.65
656.024
270.65
270.65
270.65
270.65
270.65
270.65
709.689
270.65
270.65
270.65
270.65
270.65
270.65
270.65
209.247
270.65
353.684
270.65
270.65
270.65
516.324
212.654
270.65
270.65
270.65
270.65
270.65
270.65
270.65
204.237
270.65
811.501
270.65
438.145
270.65
270.65
270.65
270.65
270.65
270.65
270.583
270.65
270.65
806.162
270.65
270.65
270.65
270.65
270.65
776.672
270.65
270.65
205.442
270.65
270.65
270.65
270.65
270.65
270.65
270.65
498.101
270.65
270.65
270.65
270.65
253.301
270.65
270.65
270.65
270.65
486.955
270.65
270.65
270.65
436.685
271.138
270.65
270.65
667.882
447.606
488.972
270.65
710.595
270.65
270.65
270.65
312.836
270.65
270.65
270.65
270.65
270.65
270.649
376.633
270.65
270.65
217.386
270.65
680.332
230.602
270.65
270.65
270.65
270.65
270.65
269.682
270.65
498.193
270.65
270.65
270.65
270.65
270.65
649.505
270.65
213.157
270.65
265.455
491.014
270.65
270.65
746.171
270.65
270.65
270.65
270.65
270.65
270.65
270.65
675.254
270.65
270.65
270.65
270.65
270.65
270.65
270.65
270.65
270.65
267.71
270.65
270.65
270.65
270.65
270.65
270.65
464.129
270.65
270.65
270.65
271.4
270.65
270.65
270.65
270.65
382.523
270.65
270.65
270.65
270.65
270.65
357.605
270.65
270.65
315.564
209.337
866.24
270.65
270.65
270.65
270.65
270.644
270.65
270.65
218.159
270.65
270.65
270.65
270.65
270.65
270.648
270.65
270.65
270.65
270.65
256.136
491.917
271.072
270.65
270.65
450.682
270.65
270.65
214.997
270.65
270.65
266.863
270.65
510.453
565.13
647.167
270.65
270.65
270.65
787.51
270.65
270.65
270.65
270.65
727.842
270.65
270.65
270.65
209.646
270.65
270.65
270.65
776.293
270.287
270.65
270.65
270.644
270.65
270.65
270.65
270.65
270.65
270.65
270.65
270.65
270.65
596.93
270.65
270.65
270.65
270.65
270.65
270.65
653.107
270.65
270.649
270.65
270.65
270.65
270.65
270.65
270.65
270.65
270.65
270.65
492.478
270.65
270.65
270.65
270.65
270.65
270.65
270.65
270.65
270.65
270.65
234.088
270.65
270.65
394.026
379.393
270.65
270.65
378.579
699.514
270.65
270.65
807.088
270.65
270.65
270.65
270.65
270.65
270.65
765.885
270.65
270.65
270.65
270.65
270.65
240.985
270.65
787.564
270.65
493.979
270.65
270.65
270.65
771.445
559.665
270.65
848.155
366.468
270.65
270.65
469.091
270.65
270.65
270.65
270.65
270.65
270.65
270.65
270.65
623.47
793.748
270.65
270.65
270.65
270.65
270.65
270.642
270.65
270.65
270.65
270.65
270.65
480.94
270.65
270.65
538.434
234.704
270.65
270.65
270.65
270.639
247.521
670.322
270.65
270.65
270.65
573.308
270.65
270.65
270.65
270.65
270.65
270.65
270.65
270.65
270.65
270.65
270.65
270.65
270.65
270.65
270.65
270.65
270.65
270.65
270.65
270.65
698.64
270.65
709.049
270.65
476.674
270.65
864.611
270.65
270.65
504.93
270.65
270.65
270.65
270.65
533.363
270.65
270.65
270.65
270.65
502.454
248.252
270.65
270.65
270.65
270.65
270.65
270.65
270.65
270.65
270.65
270.65
522.762
270.65
270.65
790.989
584.867
270.65
270.65
270.65
270.65
270.65
270.65
270.65
240.64
270.65
270.65
270.65
777.405
270.65
270.65
270.65
270.65
270.65
270.65
270.65
270.65
270.649
270.65
552.165
270.65
270.65
270.65
270.65
270.65
248.16
270.65
270.65
270.65
451.783
270.65
270.65
381.368
270.65
270.65
270.65
270.65
270.65
270.65
270.65
270.65
747.637
270.65
270.65
638.935
270.65
270.65
270.65
270.65
270.65
270.65
270.65
270.65
699.796
270.65
756.037
277.559
270.65
270.65
270.65
670.954
559.95
270.65
270.65
270.65
270.65
270.65
270.65
270.65
768.684
270.65
270.65
270.65
270.65
446.829
270.65
270.65
270.65
270.65
270.65
270.586
270.65
270.65
270.65
270.65
270.65
494.816
270.65
765.523
270.65
270.65
270.65
270.65
270.65
270.65
270.65
266.305
553.602
270.65
270.65
270.65
270.65
270.65
270.65
270.65
270.65
735.715
270.65
270.65
270.65
610.735
270.65
270.65
269.063
270.65
262.663
270.65
270.65
253.012
270.65
822.297
270.65
270.65
270.65
249.222
270.65
329.947
270.65
270.65
270.65
368.035
270.65
270.65
270.65
270.65
270.65
240.955
270.65
270.65
605.475
270.65
270.65
270.651
528.226
270.65
270.646
270.65
270.65
516.109
270.65
270.65
270.65
270.65
270.65
644.409
270.65
270.65
270.65
270.65
270.65
270.65
814.709
229.258
270.65
251.381
270.65
270.65
270.65
270.65
270.65
270.65
270.649
270.65
270.65
270.65
270.65
254.882
270.65
374.591
530.669
270.65
208.582
270.65
270.65
270.65
270.65
270.65
678.979
270.65
270.65
270.65
270.65
739.736
270.65
270.65
270.65
270.65
270.648
270.65
586.865
500.007
717.014
313.673
270.65
545.761
270.65
455.173
270.65
624.13
270.65
270.65
222.179
537.448
773.237
270.65
270.65
270.65
270.65
270.65
713.698
868.614
270.65
270.65
270.65
270.65
270.65
270.65
270.65
270.65
270.65
270.65
270.65
270.65
270.65
650.952
270.65
270.65
270.65
270.65
270.65
270.65
270.65
583.595
270.65
270.65
247.578
528.61
730.546
270.65
270.648
270.65
814.894
270.65
270.65
270.65
270.65
270.65
270.65
270.65
264.683
270.65
270.65
270.65
203.489
270.65
259.397
270.65
270.65
266.154
270.65
270.65
270.65
244.166
203.509
270.65
790.211
270.649
270.65
270.65
270.65
270.65
270.65
271.178
226.093
270.65
270.65
270.7
270.648
221.78
270.65
271.317
270.65
270.65
397.13
270.65
270.648
270.65
270.65
270.65
270.65
501.7
270.65
270.65
270.65
270.65
270.65
270.65
270.65
270.65
270.65
330.403
781.841
270.65
270.65
233.462
270.65
270.65
270.65
275.197
270.65
270.65
270.65
270.65
833.517
385.645
251.033
263.831
207.659
270.65
270.65
270.65
270.65
270.65
270.65
270.908
270.65
270.65
270.649
771.053
839.057
270.65
763.745
656.593
270.65
270.65
270.65
270.65
270.65
256.777
270.65
270.65
270.65
270.649
270.65
254.641
270.65
270.65
270.65
270.65
270.65
257.106
270.65
270.65
270.65
270.65
270.65
270.65
270.65
270.65
270.406
270.65
270.65
221.782
269.348
230.969
378.775
270.65
270.65
270.65
270.65
270.65
270.65
528.225
270.65
249.858
270.65
270.65
270.65
270.65
631.287
270.65
270.65
270.65
368.959
270.65
270.65
767.094
270.65
270.65
270.65
270.65
270.65
270.65
206.229
270.65
270.65
270.649
270.65
270.65
270.65
270.65
270.65
270.65
270.65
270.65
270.65
270.65
270.65
270.65
270.65
270.65
285.278
270.65
270.65
270.65
270.65
269.976
270.65
268.922
217.999
270.65
270.65
270.65
245.9
270.65
270.65
270.65
270.65
595.42
270.65
270.65
270.65
270.869
270.65
342.254
270.65
270.65
270.65
270.65
270.65
270.65
270.65
270.664
264.73
270.65
270.65
270.65
270.65
270.65
270.47
770.499
270.65
270.696
270.65
680.566
270.65
270.65
270.65
270.65
209.507
244.157
270.65
270.65
270.65
270.65
632.055
270.65
270.65
736
526.953
270.65
270.65
270.65
270.65
270.65
270.646
462.601
270.65
652.686
270.65
270.65
270.65
270.65
270.65
270.65
270.65
270.65
270.65
270.65
270.65
270.65
263.947
270.65
270.65
270.65
270.65
326.783
488.111
253.713
270.65
270.65
270.65
651.509
270.65
203.474
270.65
800.379
270.65
299.139
203.714
868.759
270.65
610.72
270.65
270.65
270.65
270.651
270.65
270.65
270.65
270.65
854.242
270.65
343.296
270.648
270.65
270.65
270.65
270.65
270.65
256.251
270.65
270.65
270.65
270.65
270.65
207.506
270.65
270.65
270.65
270.67
270.65
270.65
732.125
270.65
270.65
270.65
270.65
270.65
270.65
704.97
270.65
270.65
730.567
270.65
270.619
235.168
270.65
270.65
270.631
270.65
270.65
434.923
270.65
270.65
270.65
270.65
270.65
270.65
270.65
270.65
270.65
270.634
270.65
270.65
270.65
270.65
212.447
270.65
807.857
270.65
270.65
270.65
270.65
270.65
352.619
270.65
270.65
270.65
809.082
210.32
270.65
270.65
244.175
270.65
746.397
270.65
647.783
270.65
270.65
265.256
270.65
270.65
270.65
270.65
791.028
266.105
270.65
270.65
261.748
774.75
270.656
270.65
589.774
267.651
270.65
414.77
270.65
270.65
270.65
270.65
270.65
270.65
270.65
270.65
502.063
270.65
270.65
270.65
270.65
270.65
441.702
270.65
270.65
270.65
270.65
270.65
247.126
270.65
218.782
270.65
270.65
270.65
270.65
270.65
270.65
270.65
270.65
270.65
270.65
206.538
270.65
270.65
269.745
270.65
257.254
738.022
270.65
270.65
270.65
270.65
270.65
270.65
270.65
270.65
270.65
270.65
378.093
270.65
251.987
270.65
543.904
270.65
270.65
547.921
270.65
270.65
270.65
325.817
270.651
270.65
270.65
270.567
684.622
270.65
270.65
461.531
270.65
270.65
270.65
464.299
270.65
202.949
270.65
270.65
270.65
270.65
270.65
270.65
270.65
270.65
270.65
270.65
270.65
270.65
270.659
270.65
270.65
270.65
270.65
463.876
260.052
270.65
270.65
270.65
642.884
247.776
270.65
270.65
270.649
270.65
270.65
270.65
247.304
651.964
270.65
270.65
270.65
270.65
270.65
270.65
270.65
270.65
270.65
270.65
270.65
270.65
839.466
270.65
270.65
270.65
270.65
270.65
270.65
245.512
270.65
270.65
270.65
270.65
270.65
272.468
270.65
429.191
270.65
270.65
270.65
241.35
270.65
270.65
270.65
270.65
270.65
270.65
329.485
366.581
270.65
270.65
270.65
270.65
441.735
270.65
270.619
488.409
270.65
270.65
270.65
270.65
270.65
270.65
270.65
270.65
270.65
764.539
270.65
270.65
270.65
270.65
270.65
267.88
270.65
270.65
270.65
270.65
270.65
270.648
270.65
270.65
270.65
270.65
270.65
270.65
270.61
270.65
270.65
816.297
270.65
270.65
270.65
210.95
352.768
270.65
270.65
270.65
270.65
270.65
270.474
270.65
226.452
270.65
362.119
270.65
270.65
795.782
270.65
270.648
269.701
270.65
268.783
270.65
270.65
270.65
270.65
270.65
660.258
270.65
270.599
270.65
270.65
270.65
270.65
270.65
270.65
270.65
270.65
270.65
270.65
270.65
270.65
270.65
270.65
270.65
886.088
270.65
270.65
270.65
692.27
270.65
270.65
214.337
527.964
270.65
501.805
270.65
270.65
270.65
270.65
241.093
270.65
633.027
270.65
270.65
448.816
270.65
270.65
372.399
270.65
500.668
270.65
270.65
270.65
339.889
270.65
270.65
270.65
270.65
260.338
270.65
629.351
270.65
270.65
270.65
270.65
270.65
471.781
270.65
270.65
270.65
270.65
270.65
270.65
270.65
270.65
270.65
267.813
270.65
270.65
268.415
270.65
270.65
270.65
270.65
270.65
574.944
270.65
270.652
270.65
270.65
270.65
270.65
270.65
270.65
270.65
270.266
370.468
266.137
270.65
282.49
270.65
270.653
270.65
270.65
270.65
642.103
270.65
258.982
294.798
270.65
270.65
270.673
270.65
265.736
270.65
270.65
270.65
270.65
213.242
264.564
270.65
652.204
270.655
270.65
270.65
270.65
270.65
270.65
270.65
270.65
270.65
270.65
270.65
270.65
270.653
270.65
270.65
270.65
270.65
270.65
270.65
270.65
232.01
270.65
717.635
270.65
270.65
270.65
270.65
270.65
270.65
270.65
270.65
715.665
271.998
270.65
270.65
208.668
270.65
225.763
270.65
708.525
270.65
270.65
270.65
205.499
439.964
610.627
376.85
261.974
507.513
270.65
476.738
270.65
270.65
394.096
270.65
270.562
270.65
270.65
270.65
270.65
270.65
270.497
270.65
270.65
270.65
270.65
240.795
762.437
270.65
270.641
382.937
270.65
270.65
270.65
270.65
270.65
270.65
270.65
246.684
270.65
541.407
392.387
270.65
210.44
270.65
270.65
235.867
270.65
270.65
270.65
246.694
270.65
247.177
270.65
270.65
270.65
270.65
270.65
270.65
270.65
270.65
270.65
870.995
270.65
270.65
270.65
651.265
270.591
270.65
851.438
270.65
206.959
270.65
270.65
270.65
270.65
270.65
270.65
270.65
270.65
270.65
211.625
734.244
270.65
233.688
270.65
270.65
270.65
270.65
270.65
270.65
270.664
408.565
270.65
270.65
270.65
270.65
270.65
270.65
270.65
471.161
270.536
270.65
270.65
270.65
270.65
270.65
270.65
270.65
270.65
270.65
270.65
270.664
785.558
270.65
270.65
210.731
270.65
270.65
270.65
270.65
270.65
449.371
270.65
270.65
270.65
514.487
270.65
270.65
270.65
270.65
270.65
270.65
392.38
683.938
209.129
229.671
270.65
270.65
270.646
270.65
270.65
260.196
785.161
270.65
270.65
270.65
410.676
270.65
270.65
295.608
270.65
245.924
270.65
270.65
270.65
270.65
704.401
270.65
205.587
270.65
270.65
270.65
270.65
270.65
270.65
270.65
270.65
270.65
270.65
270.65
270.65
270.65
846.039
208.103
270.65
270.65
217.59
270.65
270.65
270.663
270.65
270.65
270.65
270.65
270.65
497.826
650.288
523.479
270.65
270.65
270.65
270.65
270.65
558.704
270.65
270.65
270.65
270.65
270.65
629.148
270.65
270.65
270.65
270.65
270.65
270.65
270.65
306.282
270.65
482.048
265.274
270.65
270.65
270.705
333.77
270.65
270.65
270.65
270.65
270.65
333.498
270.65
263.731
270.65
270.65
273.689
256.462
270.65
752.769
270.65
712.556
480.085
270.65
270.505
270.65
697.09
270.65
270.65
739.914
270.65
270.65
270.65
270.65
270.65
713.269
270.65
270.65
270.65
270.65
270.65
270.65
270.65
270.65
270.65
270.65
270.65
270.65
270.65
266.651
270.65
270.65
270.65
270.65
271.766
270.65
270.65
216.786
270.65
270.65
270.65
775.033
270.65
270.65
297.948
270.65
207.659
270.65
343.273
270.65
270.65
630.263
270.65
769.534
270.65
734.94
270.65
270.65
270.65
270.65
269.379
270.651
264.613
270.65
270.65
270.65
270.65
879.116
270.65
270.65
270.65
270.65
215.636
270.65
569.893
270.65
270.65
740.14
270.65
270.641
270.65
270.65
270.65
271.066
270.65
270.65
266.114
270.65
270.65
270.65
549.462
270.65
270.65
270.65
270.65
270.65
270.65
270.65
270.65
270.65
270.754
270.65
270.65
270.65
270.65
270.65
270.65
458.388
723.218
270.65
270.65
270.65
223.727
270.65
270.65
723.941
270.65
270.65
522.173
270.65
270.65
270.65
270.65
270.649
270.65
270.65
270.65
270.65
270.65
270.65
270.65
270.65
270.65
331.394
217.952
585.874
270.65
270.65
270.65
203.562
732.886
270.65
270.65
270.926
592.384
603.2
270.65
270.65
270.65
549.435
270.65
444.909
270.65
270.65
270.631
270.65
270.65
270.65
270.65
536.014
268.848
270.65
270.65
270.65
808.291
225.468
242.754
270.65
204.391
270.65
205.446
745.601
270.65
270.65
270.65
227.02
270.65
270.65
206.539
270.611
270.65
270.65
684.867
682.211
270.65
270.65
270.647
270.65
270.65
270.65
270.65
270.65
270.65
682.254
270.65
270.65
270.65
270.65
618.036
270.65
743.515
270.65
270.65
257.809
270.65
270.65
270.65
270.65
270.65
266.535
270.65
270.65
209.713
270.65
270.65
270.655
270.65
270.65
270.65
269.75
270.65
270.65
270.65
270.65
270.65
230.87
270.65
270.65
270.642
205.756
270.65
270.65
279.565
270.65
270.65
270.65
270.65
270.65
209.948
270.65
270.65
270.367
270.65
711.916
270.65
270.65
270.65
270.65
270.647
270.65
642.729
270.65
270.65
270.65
270.825
270.65
218.477
766.609
270.65
414.615
270.644
270.65
270.65
270.65
373.836
270.65
270.65
660.782
270.65
270.65
270.65
270.65
260.722
270.65
270.65
270.65
270.65
270.65
270.678
270.65
270.65
270.65
270.65
270.65
270.65
270.65
270.65
630.004
270.65
270.65
270.65
270.65
545.439
270.65
270.65
270.393
270.65
270.65
270.65
270.65
270.65
792.856
270.65
270.65
270.65
270.65
544.324
270.65
270.65
270.65
270.65
270.65
270.574
270.65
270.65
270.65
548.691
218.982
270.65
270.65
270.65
270.65
270.65
827.022
271.462
270.927
270.65
270.65
270.65
362.166
491.469
615.118
270.65
270.65
270.65
607.537
270.84
593.367
270.65
270.65
270.65
270.65
270.65
270.65
270.65
270.65
206.536
768.723
270.65
270.65
270.65
270.65
270.62
803.557
270.65
270.65
501.88
270.65
270.65
237.955
270.65
270.65
270.65
266.014
311.113
534.746
270.65
270.65
370.694
399.371
270.65
268.894
270.65
270.65
270.65
270.65
270.65
408.871
270.65
207.101
270.65
583.142
270.65
270.65
270.65
270.654
270.65
262.209
276.338
270.65
365.823
270.65
774.839
270.65
270.65
408.429
270.65
836.891
506.57
270.65
270.65
780.916
249.115
270.641
270.65
545.807
244.046
566.276
811.033
270.65
270.65
270.65
762.736
270.65
221.385
270.65
270.65
270.65
270.65
270.65
264.369
270.65
270.65
270.65
270.65
753.456
270.65
836.824
270.65
534.695
270.65
240.608
270.65
270.65
270.65
506.08
232.011
270.65
270.649
270.65
270.65
270.65
270.65
270.65
270.65
270.65
270.65
399.755
270.65
707.57
270.65
270.65
270.65
225.856
270.65
707.525
267.846
270.65
270.65
270.65
270.65
270.65
270.65
270.65
270.65
270.65
270.65
270.65
270.65
299.924
270.65
270.65
270.65
270.65
270.65
270.65
270.65
270.65
270.65
270.65
586.66
270.65
270.65
247.56
253.688
270.65
728.273
270.65
270.65
339.186
380.898
270.65
270.65
270.65
728.906
270.65
270.65
270.65
270.65
271.148
270.65
270.65
270.65
270.65
324.821
270.65
270.65
270.65
891.362
270.65
259.796
270.65
270.65
791.28
270.65
270.65
270.65
270.65
270.65
270.65
746.23
270.65
702.357
460.921
270.65
270.65
287.194
270.65
270.65
270.65
270.65
270.65
270.65
270.65
270.65
521.882
270.65
839.456
270.65
270.65
270.65
270.65
455.985
270.65
270.65
270.65
270.65
270.65
270.65
270.65
270.65
270.65
270.65
439.08
270.65
364.935
320.885
270.65
270.65
716.904
270.65
270.65
270.65
391.47
270.65
270.65
270.649
462.351
383.653
280.832
270.653
366.72
270.65
270.65
659.168
697.257
270.65
270.65
270.65
266.878
223.387
270.65
800.887
500.026
270.65
270.65
270.65
270.65
270.65
270.65
270.65
270.65
270.65
270.65
270.65
270.65
270.65
270.65
270.65
203.89
270.65
510.35
271.249
254.149
361.18
814.283
209.134
270.65
270.65
270.65
793.839
270.648
270.642
268.4
270.65
488.267
270.65
270.65
720.261
270.65
270.65
270.65
270.65
270.65
904.545
330.235
270.65
270.65
715.519
722.776
270.65
557.42
270.65
817.223
763.625
241.384
270.65
531.041
270.65
347.823
270.65
270.65
270.65
270.65
270.65
732.044
270.65
270.65
244.242
270.65
270.65
270.724
229.465
270.65
270.65
270.65
270.65
270.571
270.65
269.978
270.587
270.65
270.651
270.65
678.996
270.65
270.65
270.65
270.65
270.636
288.091
270.58
270.65
217.91
723.691
213.695
270.65
270.65
270.553
270.65
270.65
270.65
270.65
793.749
270.65
270.65
270.65
726.019
450.326
270.65
487.517
270.65
270.65
270.65
270.637
270.65
270.65
203.72
270.65
579.904
299.999
750.449
270.65
783.042
270.65
270.65
270.65
270.65
270.65
270.65
270.65
642.118
270.65
270.65
270.65
262.405
270.65
270.631
270.65
270.65
270.65
270.65
270.647
270.65
386.49
821.995
374.832
224.37
270.649
219.67
803.769
259.301
270.65
270.65
273.66
258.765
270.65
270.65
270.65
270.65
270.65
270.65
270.65
270.65
270.65
270.655
221.836
270.65
270.65
270.653
270.65
247.038
270.65
771.741
786.963
270.65
579.588
270.65
270.65
270.65
270.65
659.055
270.65
809.485
270.65
270.65
270.65
880.848
270.65
265.614
270.65
270.65
270.65
270.65
222.863
270.65
737.699
357.839
270.65
270.65
238.289
270.65
270.65
270.65
270.65
270.65
270.65
270.65
270.65
270.649
270.611
270.65
270.65
270.65
270.65
270.65
704.594
270.65
270.65
270.65
270.65
270.65
270.65
270.65
270.65
270.65
209.212
270.65
270.65
826.177
270.65
270.65
270.627
270.888
270.65
797.029
270.65
270.65
620.901
747.932
817.853
270.65
236.901
270.65
270.65
270.614
734.586
723.98
270.65
805.715
270.65
270.65
676.891
270.65
567.992
270.65
262.9
270.65
205.666
270.65
261.315
270.65
270.65
657.104
267.503
270.65
270.65
270.65
728.551
270.65
270.65
270.65
270.626
270.65
270.649
270.65
270.65
475.208
645.866
270.65
270.65
697.166
270.747
270.65
542.873
255.093
270.65
270.65
270.65
212.494
270.65
270.65
715.13
203.433
270.655
270.65
256.039
740.225
209.012
270.65
270.65
270.65
650.199
270.65
270.65
270.65
270.65
270.65
270.65
270.65
339.296
270.65
270.65
219.741
270.65
224.017
270.65
657.061
208.565
270.65
270.65
270.65
270.65
270.65
270.65
270.65
270.65
270.65
270.65
846.505
270.65
270.65
270.65
270.65
270.65
645.82
270.65
210.773
270.65
270.65
788.068
699.213
759.013
270.65
270.637
270.65
724.687
270.65
270.65
270.65
824.242
270.607
270.65
270.65
340.34
270.65
270.65
270.65
270.65
390.839
270.65
270.65
270.65
270.65
270.65
270.65
270.65
715.405
635.148
270.65
270.65
534.593
270.65
656.683
270.65
231.061
383.127
270.65
270.65
270.65
270.65
270.65
270.65
270.65
662.307
270.65
270.65
239.955
665.912
270.65
270.65
270.65
270.65
733.988
326.962
270.649
270.65
523.539
270.65
759.289
270.65
270.65
270.65
625.644
468.365
270.65
270.65
232.426
856.195
270.65
536.51
270.65
227.6
570.898
738.126
753.54
270.65
270.65
270.65
251.921
731.752
815.177
270.65
270.65
270.65
270.789
270.958
270.65
270.65
270.65
773.901
270.65
270.65
317.203
270.65
270.65
277.66
517.563
270.65
728.757
270.65
270.65
270.651
707.919
270.65
270.65
270.65
270.65
270.65
270.65
278.871
368.904
270.65
270.65
270.65
270.65
270.65
270.647
270.65
270.65
237.606
270.65
271.644
270.65
439.747
270.65
270.65
270.65
349.547
270.65
270.65
270.65
270.65
270.65
270.65
270.65
611.098
270.65
291.975
378.493
744.601
270.65
270.65
270.65
270.648
270.65
270.65
370.263
757.466
270.068
270.65
570.655
268.013
270.628
270.65
270.65
270.65
270.701
270.65
270.65
503.991
312.583
270.65
397.653
476.031
270.65
752.42
206.916
270.65
270.26
270.124
270.65
270.65
678.379
270.65
270.65
270.65
270.65
579.289
270.65
270.65
236.445
552.127
270.65
270.65
284.451
270.65
270.65
270.574
270.65
671.01
270.65
249.981
205.309
270.65
270.65
270.65
270.65
270.65
270.69
270.65
216.867
550.852
270.65
270.64
270.65
270.65
270.65
270.65
270.65
270.672
270.65
270.65
818.673
254.895
270.65
766.697
270.65
270.636
270.65
789.438
270.65
642.632
270.65
270.641
270.65
270.634
724.071
270.65
270.65
270.649
270.65
270.65
270.65
273.923
270.65
270.65
270.65
270.65
270.65
270.65
317.226
465.786
270.65
270.65
324.412
270.65
808.156
704.629
251.506
270.65
270.65
270.65
210.101
268.607
270.65
270.65
269.775
270.65
644.605
365.28
270.65
270.65
270.65
270.65
320.833
270.65
270.65
716.895
270.65
270.65
270.65
270.65
270.65
270.65
270.65
270.65
270.649
270.65
270.65
665.783
269.522
270.65
213.303
270.65
452.276
271.156
270.65
548.784
270.65
316.895
270.65
270.65
270.65
577.018
270.65
270.655
270.65
246.434
602.614
503.024
518.926
270.65
833.856
270.65
270.56
270.65
205.61
270.65
307.915
270.65
708.396
270.65
715.015
270.65
270.65
270.65
313.389
222.783
271.131
270.65
270.65
715.544
274.528
270.65
270.65
218.317
270.65
402.341
763.204
270.65
270.65
270.65
270.65
270.65
270.65
270.65
270.65
270.65
270.65
270.65
458.639
754.293
270.65
270.65
272.964
820.615
437.827
270.65
443.494
268.155
270.65
268.901
270.65
239.503
270.65
270.65
759.101
254.736
270.65
207.385
693.943
270.65
270.588
761.59
270.65
270.65
270.65
270.65
270.65
556.032
270.65
614.408
721.264
270.65
270.65
626.476
532.576
204.208
270.65
270.65
643.026
242.952
270.32
208.89
212.852
270.65
270.65
270.65
270.65
270.65
229.805
270.65
270.65
270.65
270.65
270.65
466.804
783.836
270.65
610.019
556.402
270.65
270.006
270.65
270.65
270.65
270.65
441.583
270.65
270.65
270.65
270.65
270.65
270.65
270.65
270.65
270.65
270.65
311.502
487.872
216.872
270.649
270.65
321.85
223.782
206.71
593.253
270.65
570.979
270.644
270.528
308.504
229.864
231.026
270.65
270.749
572.656
270.626
270.65
379.238
270.65
270.65
370.19
471.469
270.65
707.195
270.65
270.65
270.65
270.65
270.649
418.15
270.65
270.65
270.65
270.65
270.65
270.65
270.65
270.664
270.65
723.482
237.253
270.65
270.65
213.938
549.373
270.65
270.65
270.65
270.65
270.65
270.65
270.65
270.65
270.65
270.65
438.718
270.651
270.65
270.65
270.65
270.65
270.65
270.65
268.676
711.381
571.957
828.145
205.545
270.65
270.65
270.65
270.65
256.583
270.65
270.65
270.65
270.65
621.249
270.65
270.65
466.678
624.335
270.65
205.333
270.65
204.635
311.437
270.65
285.641
270.65
270.65
270.65
270.65
270.65
270.65
702.17
270.65
270.65
466.54
270.65
270.65
270.65
270.65
270.65
270.65
270.65
270.65
270.65
270.65
270.65
603.574
270.65
270.65
270.65
270.65
251.543
270.65
270.65
595.738
270.65
241.791
651.757
270.65
270.65
270.682
214.15
422.61
270.65
710.064
270.449
270.65
397.007
270.65
472.052
270.65
620.42
270.65
768.218
270.65
270.65
270.65
270.65
270.65
366.247
270.65
510.035
270.652
270.65
713.97
457.008
270.65
270.65
270.65
578.647
273.892
270.65
270.65
326.427
270.65
270.65
464.249
270.65
270.65
270.65
270.65
270.65
271.491
308.381
627.644
270.633
270.65
684.929
270.646
454.633
270.65
255.104
232.513
209.618
270.65
565.32
693.163
270.65
663.48
270.65
223.664
270.65
431.047
500.77
270.65
270.65
270.658
270.65
817.588
270.65
270.65
270.65
270.65
270.65
270.65
446.712
270.65
739.408
270.65
270.648
270.65
270.649
270.65
270.65
270.65
378.541
687.59
270.65
712.5
718.775
270.65
433.572
270.65
270.65
384.402
270.65
270.65
705.949
270.65
270.65
270.65
462.268
445.193
270.65
270.65
270.65
270.65
270.65
269.067
270.65
270.65
270.65
270.65
368.709
501.379
270.65
655.163
347.428
270.65
362.147
249.471
270.651
270.65
270.65
636.038
270.65
514.224
270.65
270.65
284.714
270.65
279.038
270.65
330.885
270.625
270.65
270.65
270.65
270.65
270.65
353.429
262.951
354.994
270.65
630.447
270.65
270.65
270.65
238.434
270.65
270.65
270.65
470.256
303.154
482.309
270.656
270.65
270.648
394.303
270.65
215.573
270.65
473.977
270.916
597.589
674.462
270.65
258.533
270.65
270.65
270.65
270.65
673.029
270.65
370.342
270.648
270.65
270.643
270.65
270.65
270.65
270.65
268.648
270.65
270.65
892.257
204.453
270.65
269.335
270.65
517.523
270.65
270.65
677.906
736.909
270.65
443.416
556.285
684.596
265.068
270.764
270.65
270.65
270.65
232.193
270.65
270.65
270.65
270.65
270.65
270.65
270.65
270.65
351.487
270.65
270.65
541.218
528.418
213.405
448.691
270.65
270.651
270.65
270.65
280.605
270.65
270.65
270.65
270.65
270.65
270.65
270.637
692.805
270.65
406.608
445.626
391.146
240.778
270.65
376.666
270.155
270.65
270.65
270.65
270.65
270.65
391.736
270.65
270.65
270.65
646.982
378.772
271.546
270.65
774.486
321.176
285.497
476.562
270.65
270.65
270.651
393.975
270.65
383.624
292.299
270.65
270.65
270.65
270.65
470.075
270.193
375.615
270.65
608.737
270.65
452.957
579.469
270.65
270.911
270.65
270.65
431.21
270.65
270.65
270.65
270.65
270.65
705.432
270.65
270.65
270.65
270.65
316.788
270.65
270.65
270.65
270.65
270.65
270.65
568.034
270.477
270.65
407.365
291.18
270.65
339.161
270.65
271.094
270.65
270.65
700.232
270.65
270.65
270.65
755.006
374.201
270.65
270.65
270.65
270.974
327.536
270.65
270.65
270.654
438.902
270.65
341.214
270.65
270.65
270.361
270.65
273.094
270.863
270.65
270.648
270.65
270.65
370.359
270.65
280.422
270.646
270.65
414.829
270.65
270.65
271.004
309.632
646.821
270.65
327.308
269.276
270.65
425.015
330.257
664.729
272.498
347.656
695.36
270.65
266.153
357.206
203.019
481.868
306.443
269.345
572.374
270.65
401.253
270.65
270.636
644.715
906.133
270.65
505.08
270.65
270.65
612.845
270.65
270.65
270.65
779.159
270.65
270.65
270.65
270.65
270.65
451.79
270.65
294.577
214.321
218.385
270.65
270.65
685.723
270.65
240.722
271.852
267.073
270.65
270.65
684.712
357.217
561.002
270.65
577.401
270.65
578.645
270.65
462.617
270.65
270.65
270.65
270.65
270.65
270.65
270.65
270.65
246.82
270.65
457.751
270.65
234.25
270.65
628.422
270.637
270.65
270.65
250.785
270.649
270.65
270.65
270.65
464.882
270.65
270.65
353.419
270.65
270.65
270.65
270.651
270.65
270.639
270.65
270.65
270.65
711.794
270.65
270.65
270.65
390.654
616.041
270.65
270.65
270.65
844.435
640.996
270.65
270.65
633.812
270.65
270.65
270.65
270.65
268.199
585.925
270.65
280.888
270.67
270.65
322.909
270.65
270.65
270.861
375.656
270.65
270.65
233.28
270.65
270.65
270.65
399.592
468.767
272.45
270.65
270.65
270.65
268.425
268.264
270.65
270.65
271.512
270.65
270.65
493.494
211.086
243.401
270.8
270.65
527.421
270.65
270.65
693.945
370.582
511.704
270.65
270.65
270.65
270.65
295.723
270.65
270.65
270.65
270.65
270.865
405.753
270.65
270.65
354.459
270.65
270.65
716.122
270.645
334.615
270.65
270.604
270.65
315.132
270.65
270.673
270.65
293.646
270.65
270.65
414.879
270.65
210.021
274.4
270.65
268.994
270.65
270.65
318.448
412.223
270.65
270.65
270.354
532.501
317.247
342.594
270.65
270.65
524.235
282.063
403.502
270.65
270.649
270.65
270.655
378.904
270.65
270.65
270.65
389.072
530.958
323.337
357.007
270.65
270.65
270.65
270.65
428.626
270.65
481.748
270.65
575.341
270.651
471.253
312.262
270.65
270.65
617.036
630.727
368.068
264.209
270.65
270.65
788.752
270.65
270.65
204.653
269.337
270.65
644.263
270.65
272.456