/*--------------------------------*- C++ -*----------------------------------*\
| =========                 |                                                 |
| \\      /  F ield         | OpenFOAM: The Open Source CFD Toolbox           |
|  \\    /   O peration     | Version:  2406                                  |
|   \\  /    A nd           | Website:  www.openfoam.com                      |
|    \\/     M anipulation  |                                                 |
\*---------------------------------------------------------------------------*/
FoamFile
{
    version     2.0;
    format      ascii;
    arch        "LSB;label=32;scalar=64";
    class       volVectorField;
    location    "0.0001999544447";
    object      U;
}
// * * * * * * * * * * * * * * * * * * * * * * * * * * * * * * * * * * * * * //

dimensions      [0 1 -1 0 0 0 0];

internalField   nonuniform List<vector> 
17141
(
(990 4.3572e-12 0)
(990 8.61914e-12 0)
(990 -3.90395e-12 0)
(990 -8.08262e-12 0)
(990 3.6425e-12 0)
(990 1.23394e-11 0)
(990 4.14658e-12 0)
(907.829 189.307 0)
(990 9.68015e-12 0)
(990 5.5546e-12 0)
(990 2.19585e-12 0)
(990 -1.81644e-11 0)
(464.391 -400.944 0)
(990 1.36938e-11 0)
(990 2.65518e-08 0)
(990 4.85417e-12 0)
(990 3.07306e-12 0)
(990 2.78166e-11 0)
(990 8.50058e-07 0)
(989.99 -0.00289391 0)
(990 1.03277e-12 0)
(990 -3.42105e-12 0)
(990 -1.29348e-11 0)
(975.347 4.97981 0)
(990 -8.47721e-12 0)
(990 1.35054e-11 0)
(990 1.15001e-11 0)
(990 1.57147e-11 0)
(990 -5.59799e-07 0)
(1056.36 32.1247 0)
(990 1.5304e-11 0)
(990 -2.11646e-11 0)
(990 -2.13342e-11 0)
(990 6.12815e-12 0)
(870.47 348.611 0)
(990.11 1.7376 0)
(990 -1.8447e-11 0)
(990 6.01687e-12 0)
(990 1.6045e-11 0)
(990 5.45313e-12 0)
(984.503 8.76848 0)
(990 -4.71329e-12 0)
(990 1.32171e-11 0)
(86.3243 -63.3349 0)
(990 -1.8963e-11 0)
(990 6.02879e-12 0)
(990 1.43763e-11 0)
(990.252 3.85659 0)
(990 1.91206e-12 0)
(990 -7.98251e-12 0)
(990 -4.54867e-13 0)
(990 -5.93467e-13 0)
(990 -1.84776e-11 0)
(990 -2.03605e-06 0)
(990 -6.32662e-12 0)
(990 5.557e-12 0)
(990 -5.75785e-12 0)
(990 -8.88387e-12 0)
(990 1.32159e-11 0)
(990 1.17443e-10 0)
(945.893 529.916 0)
(990 -7.65589e-12 0)
(1010.48 -74.8465 0)
(990 7.46805e-12 0)
(990 2.16519e-07 0)
(990 6.52414e-12 0)
(990 -2.75008e-11 0)
(990 1.10878e-11 0)
(990 -5.00639e-12 0)
(990 2.37467e-11 0)
(927.323 43.1246 0)
(962.618 -126.252 0)
(990 7.8546e-12 0)
(990 -1.2615e-11 0)
(990 4.39234e-12 0)
(990 2.75349e-12 0)
(990 9.0835e-12 0)
(989.346 0.158727 0)
(990.52 -0.0925964 0)
(990 -1.85587e-12 0)
(990 1.95327e-12 0)
(990 3.59961e-06 0)
(990 1.70934e-12 0)
(990 -5.61848e-12 0)
(990 3.16378e-11 0)
(459.398 -406.298 0)
(990 -2.08533e-12 0)
(1059.17 56.5628 0)
(990 -3.66342e-12 0)
(990 8.58225e-12 0)
(990 5.15423e-12 0)
(990 1.11109e-11 0)
(953.496 -180.922 0)
(989.998 -0.00126018 0)
(990 -5.80487e-12 0)
(990 -1.39672e-13 0)
(990 -1.97288e-12 0)
(990 -1.76651e-11 0)
(990 -9.13885e-12 0)
(990 3.95103e-13 0)
(990 -6.76416e-12 0)
(990 1.10075e-11 0)
(990 1.61715e-11 0)
(990 1.37434e-11 0)
(990 -5.05641e-13 0)
(100.484 -101.009 0)
(990 2.88814e-11 0)
(990 -2.7365e-11 0)
(990 -2.29077e-12 0)
(990 3.02321e-12 0)
(966.303 -206.832 0)
(990 4.46687e-12 0)
(990 4.8717e-11 0)
(990 1.12385e-11 0)
(990 -3.0356e-11 0)
(977.913 17.5062 0)
(990 1.26676e-11 0)
(990 1.03383e-11 0)
(990 2.41661e-11 0)
(990 3.17421e-08 0)
(990 1.19544e-11 0)
(990 3.55224e-12 0)
(990 -6.19129e-12 0)
(990 8.79654e-12 0)
(990 -3.29707e-11 0)
(990 6.15687e-12 0)
(990 2.21562e-11 0)
(990 -8.8114e-07 0)
(990 -5.8727e-12 0)
(990 -6.39679e-12 0)
(990 2.06149e-10 0)
(990 -9.47264e-12 0)
(976.402 -3.91131 0)
(990 1.38895e-12 0)
(990 1.93828e-06 0)
(887.258 572.959 0)
(890.707 210.554 0)
(990 -5.47331e-07 0)
(990 1.17648e-11 0)
(854.779 215.173 0)
(990 -1.4658e-11 0)
(990 -4.8282e-12 0)
(990 -5.14757e-12 0)
(990 -5.1002e-08 0)
(339.076 -362.411 0)
(990 1.71688e-12 0)
(185.161 294.882 0)
(990 -2.61019e-12 0)
(990 1.34988e-06 0)
(990 -3.98297e-12 0)
(989.997 -0.00219708 0)
(990 -8.02775e-12 0)
(984.166 8.22109 0)
(988.901 0.307727 0)
(990 -4.48364e-12 0)
(990 -1.53246e-12 0)
(990 -7.36982e-12 0)
(990 -2.64006e-06 0)
(990 -2.98628e-11 0)
(990 -7.60857e-12 0)
(990 4.05211e-12 0)
(990 4.21034e-12 0)
(990 1.21452e-11 0)
(990 1.40274e-11 0)
(990 1.64364e-11 0)
(990 -9.48877e-12 0)
(875.124 350.492 0)
(990 -9.92573e-12 0)
(990 1.84394e-11 0)
(990 -2.61852e-12 0)
(990 -7.31373e-12 0)
(990 -2.47763e-12 0)
(990 -1.01927e-11 0)
(990 -3.87055e-12 0)
(220.432 324.869 0)
(989.996 0.00086983 0)
(1062.81 125.87 0)
(477.899 -405.079 0)
(990 -5.30994e-12 0)
(969.91 -249.611 0)
(990 -1.65998e-11 0)
(990 -2.05588e-11 0)
(990 1.84888e-12 0)
(990 -1.78849e-12 0)
(487.081 -407.162 0)
(1016.5 173.565 0)
(990 -1.76072e-11 0)
(990 -2.20554e-11 0)
(990 -7.2474e-12 0)
(990 4.87639e-12 0)
(990 -6.08541e-12 0)
(990 -3.13188e-12 0)
(990 -4.05653e-12 0)
(990 -6.87442e-12 0)
(350.101 -367.185 0)
(990.005 0.00105513 0)
(846.591 -239.905 0)
(990 -3.96954e-12 0)
(990 2.99848e-07 0)
(990 3.50969e-06 0)
(507.448 -518.009 0)
(989.997 0.00100699 0)
(990 1.14862e-11 0)
(990 -7.14334e-12 0)
(990 -5.43113e-11 0)
(1002.15 44.1983 0)
(1023.31 138.287 0)
(990 -1.4392e-11 0)
(990 -1.73032e-06 0)
(990 -3.78801e-12 0)
(985.666 2.30936 0)
(990 9.26246e-12 0)
(990 7.76151e-12 0)
(990 1.06079e-05 0)
(864.834 254.898 0)
(990 5.85554e-12 0)
(989.998 0.000495785 0)
(990 1.36559e-12 0)
(990 -2.45109e-12 0)
(978.803 16.0581 0)
(990 5.24447e-12 0)
(990 -8.8695e-12 0)
(990 -3.45241e-12 0)
(990 -2.60354e-12 0)
(990 -1.08084e-11 0)
(990 1.08421e-11 0)
(835.169 -66.3351 0)
(990 -2.49975e-12 0)
(990 -6.80535e-12 0)
(990 -2.64359e-12 0)
(989.996 0.0143655 0)
(990 1.94463e-11 0)
(990 1.06564e-10 0)
(954.726 -210.491 0)
(990 -1.16326e-11 0)
(984.579 8.7637 0)
(990 -1.67822e-12 0)
(989.964 1.19759 0)
(990 1.04251e-12 0)
(826.534 -33.4537 0)
(990 -2.74308e-11 0)
(990 2.84113e-13 0)
(207.038 316.378 0)
(990 2.12131e-12 0)
(990 -8.25334e-12 0)
(990 8.86701e-12 0)
(990 -0.000292256 0)
(990 -1.07194e-06 0)
(993.187 1.09048 0)
(990 4.37528e-12 0)
(990 -3.54972e-12 0)
(990 -1.2693e-08 0)
(928.26 -176.146 0)
(990 -1.65662e-11 0)
(990 1.64693e-12 0)
(990 2.30054e-07 0)
(990 -3.026e-11 0)
(990 -5.15138e-12 0)
(990 -1.521e-11 0)
(990 -3.58346e-11 0)
(990 6.75563e-12 0)
(990 -1.13783e-06 0)
(990 1.56176e-12 0)
(990 1.29474e-11 0)
(260.3 -348.47 0)
(990 -3.77523e-12 0)
(990 1.39055e-12 0)
(1016.83 77.1718 0)
(985.879 1.25224 0)
(290.931 356.793 0)
(990 -1.00574e-11 0)
(990 -4.12649e-12 0)
(990 -7.54404e-13 0)
(990 5.69469e-12 0)
(990 5.8134e-13 0)
(990 2.76239e-12 0)
(-70.8355 21.3063 0)
(990.074 0.561062 0)
(989.999 -0.000157212 0)
(990 -7.72741e-12 0)
(778.636 -373.206 0)
(989.74 -1.01575 0)
(990 1.70198e-12 0)
(990 7.88649e-11 0)
(1063.09 152.583 0)
(990 5.95941e-10 0)
(990 -1.85714e-12 0)
(990 3.12818e-12 0)
(143.894 234.854 0)
(990 1.68753e-12 0)
(690.252 -537.686 0)
(990 -1.07073e-11 0)
(990 1.16881e-11 0)
(497.61 419.752 0)
(990 3.57119e-11 0)
(990 4.11227e-12 0)
(930.918 35.8051 0)
(990 8.37477e-12 0)
(703.091 295.122 0)
(990 6.43438e-05 0)
(990 1.59478e-12 0)
(990 9.73068e-12 0)
(990 -0.000157999 0)
(990 -1.4161e-11 0)
(990 -1.28435e-11 0)
(502.24 380.311 0)
(990 1.02271e-11 0)
(990 3.6943e-06 0)
(990 -2.45445e-11 0)
(990 3.46773e-12 0)
(990 2.47635e-11 0)
(990 8.22477e-12 0)
(990 2.54716e-11 0)
(777.079 -351.289 0)
(990 1.40589e-11 0)
(974.684 -145.851 0)
(990 -8.75155e-12 0)
(990 -2.80926e-12 0)
(990 3.31056e-11 0)
(705.542 375.136 0)
(826.066 147.047 0)
(990 -2.26159e-11 0)
(990 -0.000118104 0)
(990 -8.24751e-06 0)
(990 2.81095e-12 0)
(990 -1.56796e-11 0)
(990 -3.13901e-11 0)
(990 3.71066e-05 0)
(918.506 401.408 0)
(990 -3.22201e-12 0)
(270.127 -349.893 0)
(990 -7.49288e-12 0)
(882.857 342.155 0)
(990 -3.46481e-08 0)
(990 1.52283e-11 0)
(990 1.0351e-12 0)
(990 -1.48533e-11 0)
(990 -2.24283e-05 0)
(989.999 6.7262e-05 0)
(989.798 -0.04672 0)
(990 -2.83137e-11 0)
(990 3.213e-12 0)
(257.012 -336.221 0)
(990 1.03689e-11 0)
(990 -7.29609e-13 0)
(990 -2.65825e-12 0)
(990 -9.5836e-12 0)
(990 1.61378e-13 0)
(229.205 284.083 0)
(990 5.47016e-12 0)
(990 -1.60088e-11 0)
(905.834 378.054 0)
(990 9.94087e-12 0)
(990 -2.89283e-08 0)
(990 -1.27509e-07 0)
(990 -1.25098e-11 0)
(990 1.02206e-11 0)
(990 -1.48351e-11 0)
(990 -9.19302e-12 0)
(776.392 -383.336 0)
(990 2.44909e-12 0)
(990 -4.15343e-12 0)
(990 -1.3037e-12 0)
(990 -3.44103e-12 0)
(933.784 14.3374 0)
(990 4.63254e-12 0)
(990 -1.05216e-11 0)
(990 -1.49244e-09 0)
(990 6.9924e-12 0)
(798.502 -375.063 0)
(990 -1.12803e-11 0)
(990 -9.32835e-12 0)
(990 -2.58351e-09 0)
(889.767 343.824 0)
(989.457 -1.50465 0)
(989.999 -0.000742114 0)
(990 1.523e-12 0)
(505.583 -403.775 0)
(955.803 -362.294 0)
(909.265 -202.817 0)
(990 -2.66284e-13 0)
(516.076 365.124 0)
(990 -2.19778e-11 0)
(990 4.08595e-13 0)
(990 -7.58935e-12 0)
(1032.66 107.014 0)
(990 -5.59128e-12 0)
(990 -5.41753e-12 0)
(990 -2.18362e-11 0)
(990 -4.89536e-12 0)
(990 1.41307e-11 0)
(990.001 -0.000702204 0)
(1012.54 -69.0606 0)
(990 2.56419e-12 0)
(990 -9.62153e-13 0)
(805.926 92.0086 0)
(990 -3.02986e-11 0)
(431.197 -387.235 0)
(846.68 8.98751 0)
(990 3.52621e-12 0)
(990 1.66996e-11 0)
(990 4.88309e-12 0)
(990 -2.92044e-10 0)
(990 1.81366e-11 0)
(987.193 0.917664 0)
(990 1.03049e-12 0)
(756.777 -547.06 0)
(990 -2.26208e-11 0)
(990 5.99208e-13 0)
(990 -1.23809e-11 0)
(990 -1.30049e-11 0)
(990 8.30168e-12 0)
(627.187 361.219 0)
(990 -2.99971e-12 0)
(775.772 -73.7662 0)
(990 -9.92832e-12 0)
(1059.25 85.0614 0)
(795.176 -367.709 0)
(990 -2.26935e-11 0)
(990 8.66707e-08 0)
(336.796 363.085 0)
(990 -6.27777e-12 0)
(990 -3.37862e-12 0)
(990 6.80436e-12 0)
(990 -2.98847e-12 0)
(990 -1.93093e-10 0)
(990 -1.13755e-11 0)
(990 3.43491e-12 0)
(440.288 -395.198 0)
(990 -6.1207e-12 0)
(990 -1.76075e-10 0)
(990 -6.80557e-12 0)
(990 1.0547e-11 0)
(990 -4.09345e-12 0)
(990 7.75178e-12 0)
(990 -6.77864e-13 0)
(990 -2.23242e-12 0)
(990 -7.1411e-06 0)
(981.723 3.98628 0)
(990 3.19287e-12 0)
(990 -1.82265e-11 0)
(990 3.25985e-12 0)
(990 -1.14026e-11 0)
(990 6.91702e-12 0)
(990 -4.51515e-12 0)
(894.623 230.609 0)
(990 -9.33663e-12 0)
(990 -4.25049e-12 0)
(990 8.28866e-12 0)
(990.236 2.24552 0)
(990 -6.64292e-13 0)
(990 -1.49123e-11 0)
(990 -3.91242e-12 0)
(990 1.29207e-10 0)
(971.175 -208.742 0)
(990 1.17413e-12 0)
(990 4.0612e-13 0)
(990 4.74341e-12 0)
(990 1.18194e-11 0)
(990 1.04714e-05 0)
(1046.13 -5.01075 0)
(990 4.85434e-08 0)
(990 -2.5929e-11 0)
(1036.9 113.245 0)
(822.232 179.545 0)
(163.238 -248.373 0)
(990 -6.66182e-12 0)
(990 -6.29631e-12 0)
(990 -4.14425e-12 0)
(990 3.53245e-12 0)
(990.004 0.0135942 0)
(990 1.20653e-12 0)
(990 4.84697e-12 0)
(851.858 142.75 0)
(990 1.91878e-07 0)
(990 1.23566e-11 0)
(990 4.85643e-12 0)
(990 6.27233e-08 0)
(990 -1.29696e-11 0)
(989.994 0.00165163 0)
(990 -3.7113e-13 0)
(990 -9.02289e-13 0)
(990 7.49304e-10 0)
(990 -2.87374e-12 0)
(942.883 11.7747 0)
(709.696 -218.861 0)
(996.636 1.74257 0)
(990 -1.94293e-12 0)
(990 -9.20065e-13 0)
(962.743 -301.648 0)
(990 2.62735e-12 0)
(990 5.77884e-08 0)
(804.889 102.199 0)
(990 -1.93311e-11 0)
(990 -2.33509e-11 0)
(1054.89 57.9344 0)
(990 -6.52749e-12 0)
(760.884 -414.885 0)
(671.037 -383.203 0)
(641.753 349.065 0)
(990 2.18334e-08 0)
(990 -2.82212e-11 0)
(990 5.03431e-12 0)
(298.758 357.426 0)
(990 -6.73677e-12 0)
(990 -1.50541e-13 0)
(990 3.82552e-12 0)
(990 1.38039e-11 0)
(453.107 -383.763 0)
(990 -0.000730218 0)
(990 -1.02426e-11 0)
(990 -7.77705e-12 0)
(759.437 -88.5135 0)
(990 -2.2161e-11 0)
(990 -7.94643e-12 0)
(990 -6.46324e-12 0)
(238.277 268.289 0)
(989.524 0.995157 0)
(990 3.16973e-13 0)
(990 -1.90321e-11 0)
(989.984 0.00431053 0)
(990 7.07092e-12 0)
(990 4.57539e-12 0)
(990 5.36481e-12 0)
(990 -3.11097e-12 0)
(990 2.06851e-12 0)
(990 -1.94209e-12 0)
(990 -7.47555e-12 0)
(990 -1.66885e-11 0)
(990 -1.21906e-11 0)
(628.744 390.26 0)
(990 2.5155e-05 0)
(990 -9.69557e-12 0)
(990 6.2257e-13 0)
(990 -5.12934e-13 0)
(990 -4.62261e-11 0)
(990 -1.05104e-11 0)
(607.029 -346.794 0)
(990 -9.24536e-13 0)
(989.998 -0.00122255 0)
(990 -1.73319e-11 0)
(990 2.1428e-11 0)
(990 3.17307e-12 0)
(990 8.66258e-12 0)
(990 -9.43226e-12 0)
(990 -3.79588e-12 0)
(990 3.92523e-07 0)
(990 -3.14838e-05 0)
(990 -1.83066e-12 0)
(914.747 162.982 0)
(990 -1.27864e-11 0)
(990 1.9742e-09 0)
(990 -5.28582e-12 0)
(990 -1.12707e-11 0)
(990 6.55251e-12 0)
(990 -5.83482e-12 0)
(990 4.45568e-07 0)
(990 8.51256e-13 0)
(990 3.8797e-11 0)
(990 -6.59782e-12 0)
(862.781 -0.668096 0)
(989.999 -0.000140642 0)
(990 4.68913e-12 0)
(955.496 -230.32 0)
(983.804 257.927 0)
(990 -1.66342e-11 0)
(990 1.01964e-11 0)
(853.717 597.093 0)
(506.624 -365.245 0)
(990 -7.92963e-12 0)
(990 -6.69812e-12 0)
(255.994 -334.095 0)
(990 1.47589e-11 0)
(990 2.65148e-09 0)
(990 2.09952e-11 0)
(990 4.45799e-12 0)
(990 -4.0244e-12 0)
(990 1.94527e-11 0)
(315.344 283.915 0)
(990 1.48706e-07 0)
(990 -8.70363e-14 0)
(990 -0.000171354 0)
(990 1.74709e-12 0)
(990 -1.66668e-05 0)
(1023.83 -410.697 0)
(990 -5.89511e-12 0)
(334.7 -357.062 0)
(990 -1.58338e-11 0)
(852.6 265.081 0)
(990 -6.41815e-12 0)
(990 -6.49063e-13 0)
(990 -9.1479e-12 0)
(178.963 -220.764 0)
(682.484 -383.284 0)
(990 3.86315e-07 0)
(169.869 275.926 0)
(1038.75 17.4208 0)
(990 4.62067e-13 0)
(990 -5.0082e-12 0)
(884.205 239.767 0)
(990 5.4637e-11 0)
(990 -9.04577e-12 0)
(990 -1.27287e-12 0)
(990 5.74335e-13 0)
(990 2.59504e-07 0)
(990 1.06054e-11 0)
(990 -3.83029e-12 0)
(990 -2.54331e-12 0)
(765.128 138.532 0)
(270.771 -338.472 0)
(990 -9.15304e-12 0)
(990 6.57815e-12 0)
(990 0.000174922 0)
(990 -1.11567e-12 0)
(990 -2.44357e-09 0)
(989.975 -0.00479984 0)
(990 -1.09728e-11 0)
(990 2.5411e-12 0)
(990 5.47531e-07 0)
(990 1.11431e-11 0)
(990 -1.58872e-11 0)
(824.291 -352.108 0)
(990 1.11792e-08 0)
(990 2.58745e-13 0)
(872.049 -169.615 0)
(866.419 -36.1888 0)
(990 -8.28416e-10 0)
(990 -9.49738e-11 0)
(990 -1.57573e-11 0)
(989.988 0.0346574 0)
(941.46 60.1901 0)
(451.56 -397.125 0)
(990 2.62546e-12 0)
(990 -2.16933e-11 0)
(990 4.79983e-12 0)
(791.208 -245.65 0)
(990 -3.41616e-11 0)
(990 2.3646e-12 0)
(990 1.01905e-11 0)
(990 8.72631e-12 0)
(990 -6.07205e-12 0)
(990 -6.92535e-15 0)
(990 -8.60957e-13 0)
(990 1.68648e-12 0)
(990 -1.10887e-11 0)
(990 -1.3257e-12 0)
(990 -7.01051e-12 0)
(990.004 0.00107377 0)
(990 -2.452e-11 0)
(990 -1.03411e-06 0)
(990 -8.4114e-12 0)
(990 1.50027e-11 0)
(990 -2.36286e-12 0)
(990 2.36123e-05 0)
(990 -1.50775e-11 0)
(990 -2.80793e-12 0)
(659.725 -283.806 0)
(990 -3.81534e-11 0)
(492.74 -365.454 0)
(990 3.14679e-12 0)
(827.444 -349.721 0)
(990 -3.7056e-12 0)
(143.332 243.466 0)
(990 6.46096e-12 0)
(990 5.73178e-12 0)
(763.194 -389.387 0)
(990 -7.44319e-12 0)
(990 -5.71289e-12 0)
(990 4.45664e-08 0)
(990 1.69568e-08 0)
(908.029 53.1009 0)
(990 -1.39079e-11 0)
(990 -1.67043e-12 0)
(990 5.22538e-07 0)
(990 -1.14663e-12 0)
(885.916 314.816 0)
(1047.59 354.095 0)
(990 -1.18885e-11 0)
(990 8.64789e-12 0)
(990 -8.15796e-12 0)
(990 -6.93833e-12 0)
(990 9.72605e-12 0)
(990 1.27308e-05 0)
(990 -6.53592e-12 0)
(990 -1.72889e-11 0)
(990 2.44088e-14 0)
(990 6.76184e-12 0)
(834.564 240.264 0)
(990 2.05833e-12 0)
(990 -8.52819e-12 0)
(12.5775 22.4611 0)
(658.632 379.503 0)
(990 -3.78954e-12 0)
(990 -9.62686e-12 0)
(990 7.50805e-12 0)
(990 -4.42268e-11 0)
(990 1.20971e-11 0)
(990 3.14463e-11 0)
(990 -4.49514e-12 0)
(952.27 99.4261 0)
(990 -4.24225e-12 0)
(990 -6.252e-05 0)
(990 -4.44663e-12 0)
(220.135 -148.441 0)
(990 5.21926e-12 0)
(990 -9.16497e-12 0)
(990 2.13015e-11 0)
(990 1.62158e-12 0)
(990 -1.45822e-12 0)
(990 -7.81542e-05 0)
(990 1.36022e-05 0)
(990 -2.90045e-11 0)
(989.998 -0.000595889 0)
(990 -3.05972e-12 0)
(673.96 361.692 0)
(990 -1.49177e-10 0)
(990 -6.11385e-12 0)
(990 -1.44578e-12 0)
(990 -1.24258e-11 0)
(990 1.3517e-10 0)
(946.672 59.9033 0)
(990 3.80214e-12 0)
(990 -1.62775e-11 0)
(990 2.01736e-06 0)
(822.965 557.245 0)
(990 -1.00685e-11 0)
(990 7.73135e-10 0)
(1018.69 67.3097 0)
(990 -0.000165405 0)
(990 -3.62371e-11 0)
(990 -0.00127603 0)
(990 -1.26745e-12 0)
(990 -1.31448e-11 0)
(990 -1.45497e-11 0)
(990 -2.11235e-11 0)
(990 -8.71053e-13 0)
(348.116 -345.799 0)
(990 -1.5592e-12 0)
(990 -6.57457e-12 0)
(552.118 -399.847 0)
(990 -6.58056e-12 0)
(990 -8.59695e-09 0)
(990 -3.95412e-10 0)
(990 -1.46505e-09 0)
(990 -1.0963e-06 0)
(990 2.8469e-06 0)
(990 -5.74142e-12 0)
(990 3.5658e-12 0)
(512.482 378.405 0)
(990 3.22838e-10 0)
(275.286 -316.937 0)
(996.763 18.152 0)
(990 -4.37206e-13 0)
(990 -1.0687e-10 0)
(990 -1.6179e-12 0)
(464.672 -406.403 0)
(796.654 -260.751 0)
(990 -1.09039e-06 0)
(990 -6.37462e-14 0)
(990 4.90531e-08 0)
(990 2.77697e-12 0)
(990 5.69812e-12 0)
(990 -4.96716e-12 0)
(990 1.94453e-12 0)
(240.345 -271.109 0)
(990 -5.64939e-12 0)
(990 -1.70738e-12 0)
(990 -6.26093e-12 0)
(990 -6.17332e-12 0)
(847.386 -336.306 0)
(990 -1.83177e-11 0)
(990 -2.11201e-10 0)
(989.998 -0.000227139 0)
(990 -8.99681e-13 0)
(990 -1.00323e-11 0)
(989.817 -0.0612618 0)
(990 1.69976e-11 0)
(990 1.88004e-11 0)
(990 6.31959e-09 0)
(990 -3.4972e-12 0)
(990 -6.20088e-12 0)
(878.178 232.147 0)
(990 -4.23511e-12 0)
(334.343 365.222 0)
(990 -7.38576e-12 0)
(990 2.26707e-10 0)
(990 -7.97621e-07 0)
(990 -9.04237e-12 0)
(990 -8.64421e-13 0)
(990 -1.4585e-12 0)
(990 -1.0994e-11 0)
(984.195 12.2559 0)
(712.449 -369.449 0)
(990 -9.81001e-12 0)
(990 -6.93889e-12 0)
(990 5.94562e-12 0)
(990 -3.74217e-12 0)
(990 -1.39617e-11 0)
(990 4.40417e-12 0)
(990 8.34204e-11 0)
(990 7.57716e-12 0)
(351.631 -398.081 0)
(990 -3.95504e-11 0)
(990 1.61741e-11 0)
(990 -9.24265e-12 0)
(710.863 -308.739 0)
(990 3.10006e-12 0)
(990 -9.50917e-13 0)
(985.4 1.50253 0)
(990 8.69013e-12 0)
(964.523 4.0628 0)
(990 -2.32439e-12 0)
(990 5.18489e-13 0)
(952.723 43.2653 0)
(990 1.48435e-08 0)
(149.727 -142.881 0)
(989.999 -3.62424e-05 0)
(990 3.14683e-11 0)
(990 -1.13516e-11 0)
(1043.55 -95.6493 0)
(990 -6.79048e-12 0)
(957.874 -97.3783 0)
(990 -1.58784e-11 0)
(990 1.03119e-11 0)
(990 2.53611e-12 0)
(982.559 205.935 0)
(990 -6.20749e-12 0)
(990 -1.27838e-10 0)
(990 1.62053e-11 0)
(990 -2.30623e-11 0)
(990 8.59967e-11 0)
(900.094 48.9108 0)
(990 5.93914e-08 0)
(990 3.08697e-12 0)
(722.913 -301.508 0)
(990 9.03782e-12 0)
(990 5.07685e-12 0)
(990 -0.00169886 0)
(883.767 -163.138 0)
(990 -4.7394e-12 0)
(989.988 0.00421665 0)
(990 1.01441e-11 0)
(990 1.52232e-11 0)
(923.233 77.6867 0)
(990 5.88983e-05 0)
(990 -8.27744e-13 0)
(989.998 -0.000375347 0)
(990 -9.31805e-12 0)
(990 -1.04395e-11 0)
(545.783 -399.809 0)
(990 1.40884e-12 0)
(990 -2.57744e-12 0)
(990 -2.12334e-11 0)
(990 5.52028e-12 0)
(990 -1.10739e-11 0)
(990 1.72245e-11 0)
(64.0687 41.9416 0)
(1099.99 -91.2695 0)
(990 -7.39634e-12 0)
(1041.53 42.6981 0)
(990 -7.37385e-12 0)
(990 -3.3074e-07 0)
(990 8.49142e-12 0)
(990 3.69439e-12 0)
(990 -8.74993e-13 0)
(990 -2.35951e-11 0)
(989.996 -0.000466411 0)
(990 1.37553e-11 0)
(990 1.78333e-08 0)
(990 -6.50964e-12 0)
(990 7.30522e-05 0)
(1065.62 192.042 0)
(990 2.17029e-11 0)
(975.592 218.51 0)
(852.403 190.053 0)
(990 2.10633e-11 0)
(955.045 -263.402 0)
(990 -3.27902e-12 0)
(990 -1.6599e-11 0)
(990 1.36294e-12 0)
(990 2.10015e-11 0)
(990 1.27483e-11 0)
(738.704 -46.1168 0)
(990 -1.30058e-11 0)
(990 -3.67226e-06 0)
(990 1.66428e-11 0)
(990 3.08112e-11 0)
(485.466 340.522 0)
(990 5.8509e-08 0)
(990 -3.80898e-12 0)
(990 -4.78879e-12 0)
(990 -6.08083e-12 0)
(989.995 -0.00298702 0)
(990 -8.56392e-12 0)
(549.688 118.933 0)
(738.339 587.952 0)
(466.947 -385.306 0)
(975.611 490.084 0)
(990 -4.1995e-12 0)
(672.723 404.68 0)
(990 -1.61412e-12 0)
(929.589 184.729 0)
(990 7.47e-05 0)
(770.542 137.296 0)
(990 -4.20548e-12 0)
(990 -4.32464e-12 0)
(815.574 49.4715 0)
(684.694 425.259 0)
(322.652 364.274 0)
(990 -2.44696e-06 0)
(990 -1.35513e-11 0)
(990 9.98664e-12 0)
(990 -1.33334e-12 0)
(990 1.3339e-06 0)
(502.734 372.736 0)
(161.137 -227.972 0)
(990 -8.17515e-12 0)
(990 2.03969e-11 0)
(990 6.74582e-06 0)
(990 -4.11457e-12 0)
(990 -6.0365e-05 0)
(990 -4.28341e-12 0)
(990 7.78681e-13 0)
(990 2.1113e-12 0)
(990 2.85901e-05 0)
(990 3.0877e-12 0)
(990 -4.79619e-08 0)
(990 -8.53187e-12 0)
(990 -2.69899e-11 0)
(605.768 -355.76 0)
(990 2.87133e-12 0)
(990 5.8108e-12 0)
(990 1.54817e-11 0)
(990 1.0671e-12 0)
(990 3.09473e-13 0)
(990 1.72295e-11 0)
(990 -4.26002e-12 0)
(670.563 371.849 0)
(990 2.15325e-13 0)
(990 -6.34409e-11 0)
(1063.05 229.252 0)
(776.872 323.454 0)
(499.285 337.307 0)
(990 -1.34091e-11 0)
(990.014 -0.00127103 0)
(990 -9.33943e-14 0)
(-4.80366 -2.07521 0)
(990 5.69425e-12 0)
(990 -5.66742e-13 0)
(990 1.0637e-12 0)
(990 -4.16597e-12 0)
(990 -7.23713e-12 0)
(989.999 -3.17415e-05 0)
(990 6.94602e-12 0)
(977.503 -14.9476 0)
(990 -1.49219e-11 0)
(990 -1.01202e-11 0)
(990 -1.74736e-11 0)
(755.467 -179.645 0)
(990 2.42468e-11 0)
(1064.81 -167.465 0)
(990 -5.55509e-12 0)
(990 1.05497e-07 0)
(979.688 -10.1322 0)
(990 1.05831e-11 0)
(990 1.6768e-11 0)
(990 1.19066e-11 0)
(902.367 21.3538 0)
(733.101 -196.287 0)
(990 -6.2885e-12 0)
(227.445 220.303 0)
(989.998 -0.00319389 0)
(990 8.10478e-13 0)
(990 -4.08003e-12 0)
(990 -6.87384e-12 0)
(990 -2.21357e-12 0)
(990 1.93251e-11 0)
(989.916 1.68311 0)
(1024.01 -398.225 0)
(990 -4.71498e-12 0)
(990 -1.87594e-12 0)
(989.887 0.168554 0)
(989.996 -0.00638729 0)
(813.558 -53.0872 0)
(990 1.55052e-11 0)
(986.514 0.438474 0)
(990 -1.05347e-11 0)
(990 1.54029e-11 0)
(881.396 565.424 0)
(990 -2.2104e-11 0)
(989.995 -0.00135327 0)
(990 -2.86098e-12 0)
(990 -2.8556e-12 0)
(990 -2.37074e-12 0)
(990 -1.55733e-11 0)
(942.027 120.357 0)
(990 1.24103e-11 0)
(990 -7.74065e-12 0)
(990 -8.66175e-12 0)
(990 7.71528e-12 0)
(990 2.19311e-12 0)
(990 1.02242e-11 0)
(990 3.37734e-11 0)
(990 -1.87047e-11 0)
(990 1.97671e-11 0)
(1030.2 132.347 0)
(338.4 369.803 0)
(990 -9.99734e-12 0)
(990 1.09978e-08 0)
(1106.31 -33.5219 0)
(990 1.76642e-09 0)
(990 -9.55127e-06 0)
(990 -1.44374e-11 0)
(1054.68 33.5065 0)
(990 1.468e-11 0)
(990 6.05921e-12 0)
(990 -4.21552e-12 0)
(990 -0.000446712 0)
(175.27 256.051 0)
(977.592 277.68 0)
(928.103 -16.6079 0)
(1060.56 -99.3691 0)
(653.138 61.4509 0)
(990 4.89352e-12 0)
(990 -1.70667e-11 0)
(990 -3.48759e-12 0)
(990 7.77849e-12 0)
(990 -1.08678e-11 0)
(990 -9.28339e-12 0)
(990.162 0.768852 0)
(990 -1.23695e-07 0)
(990 3.0328e-06 0)
(989.999 0.00220357 0)
(238.272 -269.13 0)
(134.697 -148.826 0)
(990 1.37329e-11 0)
(315.942 288.864 0)
(517.084 -404.77 0)
(990 -5.09702e-12 0)
(990 1.34706e-11 0)
(990 3.37001e-12 0)
(990 6.02598e-12 0)
(990 -8.76138e-13 0)
(1060.8 -149.639 0)
(990 -7.76739e-12 0)
(990 -7.58447e-12 0)
(990 3.92632e-12 0)
(989.998 -0.000222751 0)
(990 2.52695e-11 0)
(939.236 -14.524 0)
(990 4.73087e-13 0)
(990 6.25883e-05 0)
(990 2.46303e-11 0)
(990 -6.42762e-12 0)
(990 -4.29746e-12 0)
(1008.86 -449.782 0)
(990 -1.32979e-11 0)
(990 -1.06049e-11 0)
(990 -1.39035e-11 0)
(990 1.62867e-12 0)
(990 7.23303e-12 0)
(990 9.22533e-13 0)
(990 5.69561e-12 0)
(990 1.83241e-12 0)
(989.581 0.642636 0)
(990 1.88327e-11 0)
(990 -3.14489e-12 0)
(814.727 -61.993 0)
(986.048 -0.671326 0)
(1028.6 -389.893 0)
(977.736 252.178 0)
(990 3.32942e-12 0)
(990 -1.05498e-12 0)
(990 -1.86128e-12 0)
(990 -8.7968e-12 0)
(990 -3.71217e-07 0)
(990 1.44724e-11 0)
(847.638 -327.807 0)
(990 1.6532e-11 0)
(1037.33 -96.9294 0)
(990 1.33964e-13 0)
(990 -6.24896e-12 0)
(990 -1.35225e-12 0)
(990 7.0172e-12 0)
(763.095 211.522 0)
(990 1.26171e-11 0)
(990 -2.77797e-12 0)
(990 6.14681e-12 0)
(899.047 163.611 0)
(990 -4.52173e-05 0)
(990 -1.71022e-11 0)
(335.952 296.839 0)
(990 -5.31067e-12 0)
(990 -2.28904e-07 0)
(990 -1.71305e-11 0)
(990 4.19797e-12 0)
(990 -3.81656e-12 0)
(990 1.33519e-11 0)
(672.764 64.7233 0)
(990 -7.16713e-12 0)
(990 -3.70237e-12 0)
(989.999 0.00304856 0)
(990 -1.45864e-11 0)
(990 5.8383e-12 0)
(990 -8.0278e-12 0)
(990 1.02618e-11 0)
(990 -6.79511e-12 0)
(990 3.76848e-12 0)
(990 -1.79058e-11 0)
(990 -6.08936e-12 0)
(990 -2.22612e-11 0)
(990 -7.95323e-12 0)
(990 1.59526e-13 0)
(990 1.93407e-11 0)
(990 -2.04436e-10 0)
(990 -3.31707e-05 0)
(620.899 368.721 0)
(990 7.55369e-13 0)
(990 -2.26003e-12 0)
(990 4.30327e-11 0)
(990 8.74492e-12 0)
(987.979 0.594057 0)
(990 8.20433e-12 0)
(990.236 -5.49086 0)
(968.636 -212.07 0)
(990 -2.59762e-05 0)
(990 1.35005e-12 0)
(990 -3.15309e-10 0)
(907.249 -27.8439 0)
(990 4.86334e-12 0)
(990 6.00022e-12 0)
(990 2.25284e-12 0)
(990 -5.18572e-12 0)
(644.274 383.081 0)
(990 2.01252e-12 0)
(990 7.51519e-12 0)
(990 -7.55801e-12 0)
(989.881 -0.434653 0)
(990 4.98137e-12 0)
(1024.75 172.415 0)
(990 -6.83538e-12 0)
(990 8.21907e-06 0)
(990 -1.06542e-12 0)
(990 -5.28304e-12 0)
(990 8.61773e-12 0)
(990 2.39995e-11 0)
(990 1.60816e-11 0)
(990.003 0.015975 0)
(979.694 -16.168 0)
(990 -4.00899e-08 0)
(990 -2.11505e-12 0)
(990 -7.51021e-06 0)
(990 -6.31341e-12 0)
(990 -5.68208e-12 0)
(989.468 0.190437 0)
(315.183 365.133 0)
(990 9.68834e-12 0)
(989.976 0.150978 0)
(990 5.72776e-12 0)
(452.395 -406.901 0)
(990 -3.14027e-10 0)
(990 -2.98373e-06 0)
(990 8.87233e-12 0)
(990 -3.27568e-12 0)
(927.559 -256.839 0)
(969.019 92.5173 0)
(990 4.85199e-12 0)
(990 5.22777e-12 0)
(990 1.71e-11 0)
(990 1.8679e-07 0)
(505.11 -520.631 0)
(990 -8.75674e-12 0)
(990 3.76124e-12 0)
(442.559 -389.655 0)
(770.856 331.377 0)
(990 7.59654e-12 0)
(990 -1.76456e-11 0)
(990 2.25035e-07 0)
(990 1.35946e-05 0)
(990 -2.70713e-12 0)
(989.992 -0.00682953 0)
(915.698 202.214 0)
(990 -5.63058e-12 0)
(626.073 -333.452 0)
(990 6.93949e-13 0)
(990 1.88195e-12 0)
(990 -6.16476e-12 0)
(990 -2.263e-11 0)
(990 2.73976e-11 0)
(990 -5.56953e-08 0)
(990 8.31274e-10 0)
(990 -3.89157e-12 0)
(990 1.07469e-11 0)
(990 -5.42636e-12 0)
(990 -1.2882e-11 0)
(990 -5.89168e-13 0)
(997.875 -14.2015 0)
(990 -9.53426e-12 0)
(990 4.00705e-12 0)
(990 -3.50202e-07 0)
(990 4.75786e-05 0)
(1041.21 -134.461 0)
(881.737 233.332 0)
(951.767 41.1484 0)
(990 1.67123e-12 0)
(990 4.2083e-05 0)
(990 4.73038e-05 0)
(535.798 -400.297 0)
(990 -2.11542e-11 0)
(756.555 205.297 0)
(990 -7.22379e-12 0)
(296.082 -349.124 0)
(990 -1.07298e-08 0)
(1007.45 31.4127 0)
(770.387 224.734 0)
(103.307 -36.6711 0)
(990 2.22846e-10 0)
(733.876 -271.607 0)
(990 -1.9119e-11 0)
(990 1.69581e-12 0)
(990 -1.87036e-12 0)
(990 -0.00194991 0)
(990 -1.23496e-11 0)
(990 9.27392e-12 0)
(990 -1.85095e-11 0)
(990 8.60732e-12 0)
(130.728 -112.672 0)
(990 -5.0741e-12 0)
(1049.36 -13.1313 0)
(989.948 -0.0132426 0)
(990 -1.57145e-11 0)
(990 -1.20836e-12 0)
(990 1.23179e-11 0)
(990 -6.1479e-12 0)
(990 1.52093e-11 0)
(944.207 14.7471 0)
(990 -3.49298e-12 0)
(990 1.37471e-11 0)
(990 2.12708e-11 0)
(990 -3.07547e-12 0)
(990 -9.86583e-07 0)
(828.812 -247.218 0)
(990 -1.31071e-11 0)
(990 -4.2085e-12 0)
(990 -4.07286e-12 0)
(989.893 0.00540404 0)
(990 4.39628e-12 0)
(990 1.42023e-11 0)
(347.451 -347.061 0)
(990 -7.88594e-12 0)
(990 5.94e-12 0)
(990 -5.87075e-12 0)
(990 -4.05108e-12 0)
(990 -1.04403e-11 0)
(990 -3.45083e-13 0)
(-42.2304 10.4382 0)
(990 -2.08912e-08 0)
(990 -2.4757e-07 0)
(444.508 -387.76 0)
(990 1.69944e-11 0)
(989.908 -0.0264885 0)
(944.145 127.161 0)
(990 5.91591e-12 0)
(990 5.27259e-07 0)
(989.982 0.0539403 0)
(990 -1.32593e-11 0)
(990 -8.7886e-12 0)
(887.598 -340.395 0)
(990 1.97453e-08 0)
(990 -1.98204e-12 0)
(990 4.61257e-12 0)
(990.001 -0.00148336 0)
(990 2.12141e-13 0)
(990 2.51142e-09 0)
(990 -3.89018e-12 0)
(990 -2.42086e-12 0)
(990 -3.92394e-12 0)
(989.951 -0.00917289 0)
(990 -9.81035e-12 0)
(990 4.46905e-12 0)
(990 1.80087e-11 0)
(990 3.06996e-13 0)
(771.943 -59.7203 0)
(990 -4.43815e-08 0)
(237.715 -326.31 0)
(990 3.78107e-11 0)
(990 1.30493e-11 0)
(990 9.61513e-12 0)
(990 -1.06971e-11 0)
(990 -4.83563e-12 0)
(1043.43 11.454 0)
(990 4.04531e-06 0)
(990 2.81719e-12 0)
(990 -6.6274e-13 0)
(242.948 -334.854 0)
(962.829 287.572 0)
(990 6.45877e-12 0)
(990 -2.81632e-13 0)
(957.028 -86.4543 0)
(990 -2.26491e-09 0)
(554.602 244.736 0)
(990 1.637e-11 0)
(729.845 -197.095 0)
(990 4.14421e-13 0)
(990 3.35734e-12 0)
(1060.34 -103.936 0)
(990 1.73651e-08 0)
(990 -1.17523e-11 0)
(990 -2.70437e-12 0)
(990 1.67224e-11 0)
(328.64 -356.713 0)
(981.316 -11.5735 0)
(990 1.53844e-11 0)
(990 1.24017e-11 0)
(1058.06 91.4775 0)
(366.158 -366.616 0)
(990.011 0.0143355 0)
(990 -2.7792e-11 0)
(771.783 -247.055 0)
(980.549 -2.57261 0)
(990 1.08227e-11 0)
(927.117 -278.285 0)
(990 1.7753e-07 0)
(990 -1.91418e-11 0)
(990 -8.01601e-12 0)
(990 -4.3313e-12 0)
(990 -1.53158e-11 0)
(990 -8.23678e-12 0)
(990 -4.64832e-12 0)
(990 2.60307e-12 0)
(845.218 -285.999 0)
(990 6.37699e-12 0)
(990 1.22859e-11 0)
(990 9.25893e-12 0)
(990 -2.46148e-12 0)
(990 -2.5988e-05 0)
(869.992 -351.139 0)
(990 -1.04503e-11 0)
(990 -1.42187e-11 0)
(990 8.56729e-13 0)
(990 3.66254e-12 0)
(990 -3.66056e-11 0)
(957.684 -72.0639 0)
(990 -4.23619e-09 0)
(828.786 107.547 0)
(990 4.78279e-13 0)
(990 -7.04564e-12 0)
(990 0.000770124 0)
(990 -1.63657e-11 0)
(990 2.14998e-11 0)
(990 8.84061e-12 0)
(990 -2.56559e-08 0)
(990 1.05726e-12 0)
(990 -5.40535e-12 0)
(990 3.361e-11 0)
(830.244 -345.186 0)
(990 -6.33562e-12 0)
(990 1.06953e-12 0)
(987.469 1.17265 0)
(990 2.95387e-09 0)
(946.465 -12.2046 0)
(329.624 349.475 0)
(990 -1.77214e-08 0)
(990 -1.38827e-11 0)
(990 -4.76621e-12 0)
(990 1.01514e-12 0)
(990 -5.11157e-12 0)
(990 -2.98696e-11 0)
(990 4.0382e-12 0)
(990 -2.08762e-12 0)
(990 3.10499e-12 0)
(990 -2.03791e-12 0)
(908.279 -218.442 0)
(990 1.2823e-12 0)
(927.252 10.9306 0)
(990 -1.25944e-11 0)
(711.762 422.312 0)
(990 1.3809e-11 0)
(990 -6.72115e-12 0)
(719.536 -374.625 0)
(990 -5.52003e-10 0)
(990 -1.07313e-11 0)
(990 -3.92708e-06 0)
(1040.72 -133.472 0)
(989.999 0.00435962 0)
(990 -2.96012e-13 0)
(990 -5.72281e-12 0)
(989.753 0.0713179 0)
(547.647 372.342 0)
(990 -1.6486e-11 0)
(990 -7.53134e-12 0)
(940.9 236.118 0)
(990 -7.83133e-12 0)
(990 -5.351e-12 0)
(990 -5.28761e-12 0)
(851.672 -320.679 0)
(990 5.86632e-13 0)
(647.811 -55.3802 0)
(990 -1.08252e-11 0)
(990 -8.34823e-12 0)
(990 1.45871e-11 0)
(990 -1.12315e-11 0)
(990 -0.000708063 0)
(990 1.01574e-11 0)
(990 1.99233e-11 0)
(990 -6.06474e-12 0)
(990 -2.80025e-12 0)
(990 1.07301e-11 0)
(990 -2.35335e-11 0)
(990 -2.1836e-11 0)
(990 -0.028331 0)
(990 -8.33298e-11 0)
(990 -5.48353e-12 0)
(990 8.61128e-12 0)
(990 1.20027e-12 0)
(978.782 134.215 0)
(1044.88 365.88 0)
(990 -1.18843e-11 0)