/*--------------------------------*- C++ -*----------------------------------*\
| =========                 |                                                 |
| \\      /  F ield         | OpenFOAM: The Open Source CFD Toolbox           |
|  \\    /   O peration     | Version:  2406                                  |
|   \\  /    A nd           | Website:  www.openfoam.com                      |
|    \\/     M anipulation  |                                                 |
\*---------------------------------------------------------------------------*/
FoamFile
{
    version     2.0;
    format      ascii;
    arch        "LSB;label=32;scalar=64";
    class       volScalarField;
    location    "0.001000059722";
    object      p;
}
// * * * * * * * * * * * * * * * * * * * * * * * * * * * * * * * * * * * * * //

dimensions      [1 -1 -2 0 0 0 0];

internalField   nonuniform List<scalar> 
17141
(
79.9319
80.6041
79.4202
615.841
79.7797
541.502
530.057
159.254
871.226
634.237
79.78
79.8022
580.691
79.8807
23.8119
575.471
79.78
554.362
693.431
61.6233
330.926
79.78
144.994
17.676
78.9972
79.78
438.241
79.7799
200.347
64.199
687.785
79.7647
209.213
652.472
242.35
63.9922
80.2041
92.8763
79.78
539.124
35.9641
89.3721
465.862
958.655
185.493
546.876
327.388
59.8005
85.6871
330.384
371.451
79.7594
133.861
814.072
92.5352
216.205
441.404
400.791
317.55
655.231
13.3958
157.989
101.231
79.7805
843.585
480.884
370.447
546.208
353.083
69.5741
16.2847
760.058
580.297
76.2043
79.78
79.7832
79.78
30.8508
741.78
80.0168
79.7751
861.219
463.88
79.7803
527.239
562.739
82.9394
58.3518
270.284
79.78
79.78
571.101
25.2325
31.5846
402.365
79.7366
448.988
374.589
143.958
527.753
79.7747
493.476
79.78
79.779
103.487
942.88
79.3682
380.216
79.78
79.78
153.315
222.949
660.848
774.067
371.83
31.462
344.739
497.041
803.633
758.476
61.6203
79.7803
419.88
399.582
239.269
166.378
663.816
32.9713
79.7812
399.143
811.552
79.78
32.3468
79.78
66.7226
13.7759
172.374
757.07
499.077
185.59
133.957
310.691
78.6096
802.227
638.013
79.087
800.84
358.354
193.077
79.78
29.6472
236.254
758.393
15.5093
441.618
79.7913
77.557
32.4108
79.3465
77.2747
79.87
493.649
555.177
120.289
545.66
75.2311
243.553
156.904
79.78
82.2284
79.6621
79.7269
338.254
79.7229
762.547
16.4189
47.3081
540.775
418.446
22.1471
86.8446
211.824
547.303
71.551
539.064
125.201
79.7767
93.3677
624.814
198.935
334.209
448.061
390.691
145.634
614.641
811.341
498.445
93.8592
835.492
66.0239
16.0537
59.9846
407.893
153.077
853.188
108.908
131.612
99.1119
824.505
333.823
16.4259
401.453
392.047
854.965
198.277
434.563
16.2638
457.163
393.949
33.5245
79.7799
80.6593
79.7792
585.722
197.29
611.706
74.5032
79.1288
84.0628
497.47
404.583
584.773
758.867
23.7217
130.02
38.1382
716.053
64.5665
296.104
75.2008
44.9998
643.566
765.407
509.721
188.272
536.759
842.663
830.608
66.4619
79.7486
396.278
782.243
149.158
595.367
527.814
857.58
278.51
79.78
460.651
79.7802
76.8819
820.002
80.6424
87.6765
711.523
433.34
500.813
100.998
740.037
709.682
79.7793
414.672
484.232
79.78
79.7761
494.158
19.0189
118.403
21.391
591.855
313.83
352.5
314.747
798.157
42.0926
739.777
270.416
79.7793
855.69
459.144
15.3481
76.8153
123.246
18.3162
83.9227
321.937
15.9258
656.774
24.4295
75.8685
79.78
472.503
449.734
405.119
79.7788
474.92
525.227
63.9069
77.4803
79.7826
576.498
693.826
763.659
16.7586
80.2566
288.735
421.692
77.9773
555.697
464.328
14.7172
515.629
858.385
32.9428
565.518
582.302
197.847
74.6931
14.1422
79.78
687.06
79.5362
231.042
551.811
79.7715
85.1952
71.8291
32.2821
871.253
14.5532
279.636
796.721
727.658
79.9252
79.7693
458.053
191.068
79.78
818.341
79.8011
79.7766
13.9424
236.243
550.895
866.69
461.494
144.051
79.7648
79.7798
312.564
79.9112
79.8697
78.8346
75.9581
49.812
79.7824
67.3552
904.209
168.097
289.231
76.3821
79.78
668.505
232.228
354.063
28.9658
267.027
521.538
24.532
165.793
79.8332
436.655
79.7948
191.433
325.394
90.5339
124.218
366.443
79.78
266.82
95.3277
437.378
100.067
360.567
79.78
19.5967
867.374
624.077
57.8374
79.78
79.7797
194.848
34.5961
411.181
31.3849
79.78
14.5066
79.9843
79.78
79.86
627.873
692.099
362.008
366.446
44.2762
402.388
51.902
291.209
194.393
529.674
673.943
79.8053
77.6302
496.108
79.8219
811.637
79.78
79.78
604.747
619.196
830.703
475.832
79.3397
79.9687
641.668
79.7801
185.178
62.5628
15.294
301.308
79.78
80.3113
72.6306
79.8594
89.6664
180.064
63.8702
590.682
551.116
101.171
66.1431
449.702
365.975
756.236
150.282
345.802
72.1848
322.938
80.133
19.1831
77.9442
62.7224
145.361
90.4307
14.8009
833.715
79.0717
79.7801
407.187
103.235
654.504
213.103
84.9809
16.4312
747.053
79.78
79.7803
831.418
607.823
59.2044
189.866
362.712
560.554
79.78
56.7559
729.564
62.441
79.7504
79.8026
27.735
79.6794
16.7729
14.5648
79.7806
243.04
55.5028
79.78
342.389
380.825
340.681
61.4847
366.847
69.9451
716.383
77.7302
205.969
185.665
79.78
499.4
385.766
354.064
648.729
39.663
641.584
77.3393
581.403
801.669
42.9969
182.2
79.7637
25.9463
76.5131
79.78
299.62
85.9184
79.787
82.7929
73.2988
130.997
79.6926
408.675
394.003
79.7815
238.554
658.722
79.78
60.8014
356.829
79.78
27.2127
219.643
385.258
76.5178
482.715
163.623
79.6139
406.006
61.4083
79.78
146.157
79.7782
870.079
552.512
150.733
79.78
489.275
863.183
422.428
77.0632
502.96
59.5114
15.4662
79.9202
164.278
159.967
79.7887
79.78
16.5794
442.002
79.9039
73.9926
644.267
343.07
34.0182
74.9341
388.073
295.615
408.205
17.7481
18.4656
492.509
790.458
348.619
62.6959
15.4918
266.821
570.497
79.6299
208.212
79.78
278.634
440.495
887.923
373.453
538.171
821.113
82.412
212.999
78.2871
188.545
718.215
394.504
79.78
79.78
808.46
79.78
79.7869
79.7839
150.735
728.158
705.064
719.608
437.564
79.78
148.162
62.5448
79.141
596.875
23.3199
377.433
57.2936
268.357
32.7119
79.78
155.875
50.3846
763.843
825.886
453.603
405.291
25.0516
600.453
79.78
217.645
79.78
213.87
79.78
79.4938
79.78
476.614
443.196
79.78
80.0943
422.248
79.6768
79.7801
223.721
760.943
98.1608
868.176
79.78
79.6054
98.2316
455.525
411.529
432.206
26.6796
79.78
441.627
79.78
265.126
79.8485
848.052
554.316
79.78
332.353
77.835
162.161
360.435
628.371
103.396
616.309
193.933
852.78
387.568
28.562
20.753
414.659
505.135
168.949
78.0517
79.778
871.651
242.203
191.879
484.257
80.2327
205.304
321.412
77.8201
18.497
378.025
79.7505
389.928
227.959
79.78
193.516
143.476
79.6933
30.8949
290.239
33.0084
79.5914
894.731
79.9618
79.78
79.7801
82.9351
79.7795
784.463
22.7303
79.78
15.8414
524.573
463.323
731.018
351.555
79.78
80.4353
647.204
26.8301
79.78
123.416
19.1128
13.7893
409.675
454.157
99.1845
31.8662
39.939
137.594
366.759
596.238
180.227
575.48
338.546
681.968
549.876
745.218
482.174
395.821
145.82
811.901
567.741
837.979
144.25
505.819
417.929
475.168
813.85
15.2617
109.764
79.7825
678.061
77.7437
572.201
223.039
830.88
78.8456
98.1068
554.951
115.176
442.351
512.344
837.13
361.594
79.7798
79.78
79.9214
276.014
79.7804
36.2211
69.0804
358.139
80.0938
26.8881
79.7799
595.82
796.664
269.756
147.472
186.157
305.985
672.66
79.78
397.279
16.1253
76.6782
653.637
78.4531
363.676
40.8456
343.057
168.901
79.78
471.535
378.168
79.7777
79.78
692.565
479.643
17.6171
79.7794
480.457
90.8812
273.795
129.857
79.7771
34.5475
711.925
59.4876
410.453
86.1747
25.191
363.838
914.917
61.803
92.485
81.2359
45.273
79.78
498.119
325.987
496.021
79.7406
145.795
437.446
736.564
388.89
84.1311
818.959
14.2134
112.713
390.594
267.612
140.386
120.791
428.766
152.988
79.7844
17.0451
79.7799
79.78
114.483
16.4061
79.6889
68.0091
79.78
187.986
480.481
79.9165
183.314
79.7797
146.134
269.009
79.78
18.4957
687.491
91.4276
729.015
354.818
94.6033
667.554
331.386
79.8622
358.344
59.1095
180.067
113.461
78.8651
374.906
37.5954
198.272
152.898
172.456
337.843
19.2923
454.722
611.338
467.224
79.7784
504.946
62.7467
134.304
395.454
460.48
76.5079
390.66
115.17
409.457
302.293
79.8771
26.2845
140.229
914.756
16.7685
484.2
13.786
79.7699
443.204
385.795
153.281
385.856
150.957
445.505
443.992
50.9185
439.622
679.722
473.875
79.78
79.78
79.78
155.042
458.929
849.396
79.78
591.628
187.252
78.5909
61.6415
354.759
79.78
470.445
36.4831
239.087
816.871
79.7799
272.527
373.018
72.1044
243.494
388.106
79.7631
79.7799
79.78
421.141
366.825
79.78
815.414
32.6993
273.74
420.369
444.634
878.908
79.78
18.3449
79.7929
79.78
87.4006
164.013
278.558
874.54
79.78
29.9109
109.395
241.223
79.7799
17.3977
384.992
41.0444
79.7428
26.3391
29.4542
712.39
79.78
182.359
55.4476
21.3742
79.7812
13.3551
38.6666
79.7805
80.1341
135.617
79.9622
79.78
117.035
16.0995
426.271
508.036
758.168
38.2726
51.5566
79.78
688.767
443.194
81.3142
13.1479
79.7786
15.1584
340.344
79.7769
79.78
821.925
55.2236
80.1355
337.722
79.7802
547.945
511.49
554.497
624.315
642.479
368.437
106.563
650.388
110.365
164.674
910.289
802.783
20.342
184.907
61.0883
79.78
81.1312
79.78
133.97
835.537
168.993
51.8521
49.9117
47.3545
156.406
43.3317
72.0217
79.7633
79.78
609.779
102.709
28.232
868.224
203.796
829.67
921.168
114.011
763.563
513.641
642.413
388.189
564.795
79.78
518.967
41.6915
79.78
219.298
369.457
27.2266
102.074
47.9063
76.4306
848.77
648.432
79.7566
98.779
14.3587
648.242
211.503
368.022
79.7801
150.935
73.882
301.737
519.304
45.8986
79.78
79.78
41.0946
62.9193
17.0271
158.468
82.01
377.077
79.7819
450.126
65.6783
95.5873
25.1497
105.249
44.0392
171.392
426.329
101.781
163.773
34.2297
98.1163
380.002
309.703
503.742
636.97
46.9911
760.668
284.816
617.519
409.962
272.842
827.007
731.81
43.8551
84.0883
79.7443
678.14
611.584
59.997
544.85
79.7799
79.78
79.78
362.608
486.955
79.7651
79.78
80.2743
79.7801
800.775
775.013
31.1383
79.7193
77.8458
709.43
114.447
17.4445
79.78
712.246
24.2984
179.88
77.2726
646.739
38.5778
667.895
242.16
48.5809
79.9737
394.941
79.7899
657.802
71.4464
719.98
174.667
117.054
374.832
63.5421
663.314
79.78
79.7881
79.78
79.7797
627.722
33.1898
728.859
239.43
374.642
79.7756
79.7596
15.5527
698.783
468.277
113.409
565.299
574.172
173
861.287
79.78
79.78
18.3404
34.028
242.175
79.78
92.1437
24.846
17.1434
385.111
79.8099
542.743
282.939
79.8152
79.7794
22.6448
153.858
178.852
24.6237
164.421
79.8256
332.719
313.136
640.167
73.5882
244.932
79.78
630.376
745.534
104.327
180.578
68.7284
452.617
180.132
515.747
79.78
79.7808
700.639
328.424
100.862
186.179
23.5941
79.7787
421.575
674.16
495.998
363.275
14.9781
164.147
639.244
875.375
491.182
13.5303
954.167
816.203
239.841
130.663
334.474
412.823
127.907
358.451
498.248
79.7877
423.535
936.497
79.7801
75.5932
761.896
385.07
79.78
762.867
79.78
94.2695
38.0126
217.054
75.0606
79.78
79.78
663.741
14.1847
79.78
56.6905
361.257
888.664
79.78
335.505
687.146
86.095
329.708
74.9013
61.0418
310.575
168.921
19.4694
417.177
848.848
555.642
201.084
14.8354
28.3835
142.527
15.9881
192.485
79.8262
361.006
226.01
710.798
398.769
79.78
415.258
79.5763
781.998
79.7871
79.9478
100.007
14.5497
79.7818
310.213
79.78
416.979
50.3678
15.8389
759.063
79.78
585.996
79.983
166.87
79.78
80.0465
59.7049
78.8891
79.78
744.262
18.8234
540.387
374.043
31.325
456.554
20.409
308.268
205.306
79.78
79.78
49.4813
879.29
79.78
358.424
79.78
605.8
32.6591
79.0848
354.018
51.222
563.376
62.7305
204.073
218.43
36.1294
145.149
193.341
864.785
585.056
409.886
449.233
79.78
79.7799
80.8316
79.188
223.8
79.78
79.78
182.624
523.623
374.756
245.794
79.7804
79.7775
360.665
70.5997
817.296
31.389
429.291
14.2335
454.497
79.7781
628.812
139.382
404.384
79.78
666.628
79.7999
79.78
79.78
14.2238
151.355
73.384
16.5009
124.368
46.6824
14.5079
850.975
81.3926
269.878
75.8541
79.78
333.292
344.116
80.0079
347.964
79.78
299.881
100.089
58.7771
394.484
389.887
77.4512
79.7797
346.387
810.809
345.258
868.954
99.425
111.745
102.917
79.7717
28.1236
435.367
498.541
79.78
36.0483
79.9541
637.747
436.653
242.043
79.78
46.094
79.779
79.7797
662.014
79.7802
658.055
73.147
204.653
418.92
285.726
190.746
214.06
201.294
151.384
40.4122
104.034
167.541
79.78
54.0306
20.587
79.7851
304.355
344.444
301.473
19.6581
351.539
251.093
879.684
271.743
62.9032
402.736
21.3889
400.293
265.199
79.7795
180.435
72.1013
694.963
797.654
209.529
442.516
319.446
492.019
115.107
811.749
850.159
615.253
140.969
79.78
79.788
203
548.348
52.6181
79.78
244.673
79.875
79.7713
79.78
105.666
247.796
214.923
183.599
615.217
71.2379
16.2966
417.569
192.545
489.02
545.495
79.7795
80.1943
110.994
63.4986
79.7802
140.959
120.994
73.5166
510.318
79.78
191.865
226.383
76.4581
450.271
79.7809
79.8932
79.78
376.214
162.529
488.372
79.7802
21.3748
178.963
806.777
235.692
703.976
470.865
59.6665
399.646
336.071
856.157
729.483
584.77
14.4483
79.78
93.9336
79.8028
79.6846
233.034
362.949
769.234
79.7664
80.7187
678.024
79.8359
131.148
79.9892
18.2696
125.617
366.913
406.66
349.975
73.1321
79.7795
619.424
125.425
14.039
79.78
61.5957
852.498
79.785
649.876
385.021
540.398
40.744
77.5651
59.9324
74.8682
79.7292
75.5707
79.7648
79.78
114.919
578.976
17.6571
79.8513
79.8651
593.873
653.759
79.8498
20.8368
79.78
677.449
62.5256
89.0756
132.222
183.131
36.9108
190.385
280.598
915.471
157.159
404.532
393.326
440.997
101.84
457.956
13.8212
19.8176
42.2721
480.71
688.705
60.756
79.78
41.3991
34.6925
79.78
464.517
399.253
79.6333
219.257
372.141
703.391
186.611
79.7804
213.329
404.404
79.7783
79.78
114.764
590.894
597.427
540.385
341.701
32.1294
223.338
465.896
732.376
171.372
78.9194
356.68
21.1459
245.451
372.309
209.203
87.2692
544.157
210.407
867.726
79.7836
87.7808
383.672
14.3507
388.119
79.78
43.2079
109.549
379.605
79.8409
330.109
283.083
14.7985
90.3275
319.718
741.429
85.4777
32.7873
538.806
185.164
438.753
79.78
22.3596
893.634
399.479
79.7797
397.506
110.269
61.2503
79.8455
425.371
173.227
328.098
798.39
29.064
14.1949
80.3946
377.179
100.657
451.449
38.2867
708.249
874.716
79.78
181.048
18.3104
43.9024
53.53
567.37
93.6408
79.78
740.433
79.78
518.559
79.062
77.8433
734.62
64.5575
380.26
312.494
23.5144
91.8957
273.436
425.811
79.78
553.281
300.518
41.789
52.9147
57.0693
287.999
387.744
170.54
419.542
79.7672
161.493
61.0519
340.746
130.676
589.774
466.39
315.742
315.828
368.967
52.2869
61.4555
34.391
62.8182
497.779
79.7775
77.3472
79.78
30.1002
233.979
33.2297
149.154
18.9487
144.876
797.462
98.9134
79.78
112.823
123.836
79.78
71.0935
234.613
79.78
79.78
176.449
363.601
15.2122
79.2133
79.78
214.634
175.529
17.3625
853.283
622.265
17.2567
153.446
370.488
79.78
145.172
646.132
368.182
359.761
370.685
14.1845
157.331
101.283
177.491
79.7808
16.7076
79.78
230.094
47.308
79.7794
396.891
394.461
58.6997
389.302
28.855
340.852
341.671
149.604
17.8531
150.519
79.78
79.78
585.712
79.78
899.313
594.948
79.6933
312.121
422.717
735.436
79.8946
918.97
79.78
13.9194
17.1892
249.189
80.0146
155.676
91.4991
507.991
814.69
84.2264
295.165
34.8926
502.678
51.2024
59.453
79.7807
72.7238
368.578
79.7807
869.889
99.7326
713.06
183.525
79.1851
634.814
79.782
191.026
239.754
79.7858
144.816
369.645
70.1785
501.719
417.291
227.275
371.664
795.941
456.603
53.9779
130.072
79.78
79.3908
292.301
639.629
340.731
79.78
29.6802
646.372
94.1647
123.422
269.971
79.7371
154.278
79.78
79.78
224.796
358.735
377.74
31.2109
57.2532
65.016
812.115
79.7779
111.992
261.484
17.6039
51.8237
168.237
39.5484
203.811
570.133
236.153
49.5086
782.453
172.598
79.78
79.78
196.237
663.374
79.9328
12.7193
338.973
57.5008
79.7803
537.315
247.566
79.78
519.84
233.125
47.8462
245.301
83.7196
480.902
416.307
329.917
344.111
858.392
235.049
79.78
662.385
391.965
141.257
79.7762
941.512
52.03
335.183
852.227
54.2582
22.5512
79.9454
305.223
79.78
534.344
64.9752
855.914
254.696
230.576
553.117
97.4527
111.409
446.325
227.707
77.5118
316.253
352.602
69.9532
403.181
68.4475
98.1034
84.2414
59.6281
157.008
70.1937
457.405
79.78
361.625
79.78
79.78
65.4385
79.7667
210.64
26.9201
632.982
72.2272
794.252
113.244
79.78
440.474
396.943
117.946
408.33
107.864
65.3295
898.653
570.227
234.515
899.726
35.032
309.035
19.545
339.256
817.567
170.985
79.78
645.513
277.686
649.135
79.5192
62.6546
652.253
75.6822
215.142
79.9658
408.894
76.5716
513.837
79.78
137.946
373.485
79.78
130.7
104.095
460.083
362.148
46.844
80.7666
757.571
37.9373
17.1403
26.8122
85.018
79.78
235.176
380.913
894.572
18.3983
79.78
14.1666
79.78
162.853
182.459
599.937
375.555
608.209
58.6527
146.683
52.2829
254.489
186.222
386.261
88.26
112.395
250.067
786.649
342.618
580.943
159.75
67.8152
167.107
541.128
25.1358
154.877
44.4832
359.225
79.78
460.161
79.78
884.313
375.207
79.78
848.01
79.78
17.7804
824.397
214.592
79.7924
79.78
687.078
77.9609
23.5678
79.7797
144.52
133.29
413.157
98.2436
355.996
57.15
384.867
503.489
77.1984
174.567
336.899
384.61
859.776
359.484
79.7799
72.9284
79.78
321.318
70.4867
212.722
124.783
148.786
82.6894
50.9329
304.723
79.78
223.512
539.289
203.133
258.239
115.51
14.0997
360.141
79.9771
652.822
70.6887
376.216
18.241
295.738
742.537
79.0454
79.7808
62.1923
79.8475
62.7201
89.218
79.78
79.9906
386.613
79.8038
467.09
79.7761
85.7233
19.6585
312.887
79.78
79.78
79.9237
47.8805
19.36
79.78
74.1233
412.894
414.819
468.739
228.9
396.755
73.447
417.471
79.78
169.264
50.1684
61.528
493.017
79.5706
79.9229
71.4045
143.374
51.7559
894.534
322.571
345.252
79.78
773.713
49.2729
24.4411
79.2549
13.8139
403.863
17.2258
722.599
330.538
79.7948
72.0316
54.3335
17.1697
79.7558
19.1342
46.6853
122.055
213.529
181.981
632.282
39.6326
360.55
18.475
79.78
79.78
77.331
164.911
493.216
74.0796
285.251
367.448
134.489
79.7855
459.573
461.954
463.908
553.922
79.8631
57.9278
25.2916
79.7807
79.777
79.7797
812.114
799.178
43.8552
76.5524
391.759
18.6044
79.7859
443.788
110.202
78.9536
326.632
101.949
775.691
392.429
140.185
74.1992
337.153
392.986
56.9376
79.8134
19.3913
530.97
51.0077
349.013
126.091
768.792
350.04
611.27
267.606
465.608
140.413
15.9415
72.7198
79.7031
65.4281
184.999
490.297
79.8162
130.8
415.443
182.511
876.028
487.905
92.3729
184.565
441.706
79.78
472.136
351.487
54.1373
602.948
351.127
178.842
689.05
79.78
382.542
79.78
473.691
334.55
79.78
234.003
79.78
498.152
540.669
883.733
891.952
80.1162
565.328
77.3002
140.028
368.906
884.722
75.8977
152.099
79.8003
471.95
739.875
364.812
150.215
741.682
307.648
79.0781
455.055
80.1752
79.6436
312.461
310.95
60.8529
15.3315
149.067
79.78
81.5896
79.78
157.433
805.62
79.78
79.78
79.7721
79.7576
337.213
416.269
452.646
514.313
79.78
106.576
884.001
136.02
79.78
77.9156
412.592
23.6288
138.886
131.072
711.133
823.241
110.118
800.344
179.414
744.346
79.7867
71.3263
79.7696
786.838
198.459
13.2242
472.608
152.596
268.267
463.323
312.368
289.108
403.387
889.926
64.8588
309.992
717.46
497.993
69.4829
355.422
13.9704
18.9304
514.089
868.491
17.7313
373.517
656.577
850.774
79.78
791.037
229.159
79.78
172.691
56.8708
79.8167
79.78
244.95
15.2729
102.928
130.254
79.78
346.399
137.746
130.535
423.252
25.0857
79.78
117.05
369.798
62.7516
584.501
171.579
343.207
36.1776
91.8564
292.932
107.468
71.596
162.77
291.248
79.9566
799.035
204.355
152.617
122.957
615.351
751.09
79.8386
340.406
196.707
704.744
866.143
65.6211
753.622
79.7669
793.784
58.6076
14.3996
487.172
394.744
15.9748
246.242
18.7292
79.7801
259.713
477.027
684.111
311.627
24.9819
79.78
177.593
79.801
646.622
79.7798
57.3765
78.1946
79.7798
866.096
423.949
573.752
577.542
836.363
169.894
284.442
79.7807
13.8147
675.76
620.981
79.7585
344.328
26.3324
564.253
39.7051
843.251
157.623
79.2306
856.009
809.888
59.7394
79.78
376.561
394.81
620.124
648.148
79.7798
601.509
75.7514
28.8787
79.78
19.51
65.5116
434.863
104.949
273.557
691.222
76.0173
219.887
857.603
335.55
332.008
97.7894
75.9671
90.3763
76.9046
174.571
71.5149
127.836
161.822
77.1437
75.5276
718.754
74.4098
142.901
146.723
234.884
79.78
399.067
14.3794
32.0252
70.4535
515.977
229.947
60.2601
90.2938
28.8761
168.096
382.276
500.214
13.2648
425.971
210.097
363.339
79.7712
763.641
79.78
29.6
163.047
261.762
101.616
109.216
566.889
51.5039
911.313
702.052
19.4359
17.6359
325.327
784.383
79.78
299.06
79.78
145.663
139.03
303.288
707.868
171.18
542.022
273.243
78.9379
267.636
68.6437
268.837
79.78
387.169
503.979
588.572
109.487
51.5517
420.742
116.431
79.7565
937.14
447.574
79.7718
638.697
591.491
257.532
79.8676
144.383
478.519
79.78
217.089
463.014
858.008
22.19
179.7
218.059
266.215
861.852
135.232
62.6989
217.589
681.32
513.69
536.752
79.78
645.025
135.087
79.78
413.171
60.2477
251.862
165.58
195.029
517.835
147.122
541.663
79.7804
436.362
657.025
79.7798
191.071
84.8436
64.1958
30.7049
80.3184
834.296
389.837
59.8831
123.006
172.514
486.117
460.908
523.653
79.7869
79.78
169.703
55.9651
156.258
202.339
135.227
522.241
754.747
32.6616
45.4373
258.147
769.87
48.6096
139.871
832.094
14.7624
548.966
79.7747
113.937
853.903
60.0059
35.4784
64.163
375.078
128.003
72.8421
79.8038
233.68
79.7798
349.524
707.458
702.652
78.0438
955.076
74.0922
187.76
528.851
393.431
590.854
343.265
321.563
79.8804
688.353
792.136
57.5484
79.7216
304.514
79.7801
121.173
79.7811
79.78
79.78
79.78
83.3233
360.115
76.6681
359.301
18.1217
355.765
128.801
98.9243
13.6836
171.561
21.126
165.597
358.634
746.269
501.758
22.3265
45.4907
377.322
230.339
79.78
767.264
424.09
80.4707
574.869
99.5511
64.2663
68.1011
16.3787
76.8371
40.5539
615.866
15.9859
198.927
517.249
15.3384
65.788
74.4158
117.973
304.004
14.7533
878.505
496.974
270.005
716.629
168.171
79.8453
17.1976
79.78
505.23
421.954
21.9133
79.7969
264.875
45.1452
138.469
412.369
78.058
510.325
79.78
827.907
745.132
322.286
368.495
635.26
79.4455
79.7799
79.7795
429.172
236.452
79.7797
164.227
670.834
425.741
18.942
199.585
46.7614
411.514
79.927
16.485
114.663
603.251
874.847
137.694
17.1218
294.701
20.1605
870.603
38.3026
79.78
708.662
655.258
56.9865
757.23
400.099
334.257
329.341
159.624
63.6009
529.507
63.5684
421.359
278.844
16.7613
133.116
409.217
878.185
211.054
51.2435
799.579
801.101
763.563
79.7817
317.036
79.8261
314.672
79.78
79.7824
207.431
66.66
809.772
79.6951
239.319
459.489
865.2
520.189
14.007
640.974
206.257
499.522
450.979
14.5093
79.7799
12.1266
115.997
75.7432
79.7798
54.8628
478.945
76.2625
548.694
408.796
75.2301
79.78
77.5283
60.6376
64.6009
19.3619
79.78
546.875
387.732
128.011
79.78
677.748
433.411
45.6847
127.345
140.61
144.112
85.2115
77.2491
79.78
79.78
44.2026
79.78
67.7029
847.294
79.9156
491.032
43.0877
481.587
128.553
866.665
339.504
110.667
529.186
586.184
18.0465
119.881
52.6986
212.807
73.7338
34.6465
534.984
49.5944
502.265
751.79
484.949
370.381
46.9654
554.516
406.556
601.055
719.409
252.37
53.5074
80.0093
490.345
315.549
69.2082
418.081
63.4945
675.071
171.335
213.816
47.8254
806.704
567.657
72.6606
424.102
459.5
720.31
477.931
79.78
37.8524
569.575
367.451
482.894
132.163
392.162
287.055
294.958
34.7939
100.545
79.78
813.329
19.5319
85.602
76.0003
552.9
27.5334
97.0155
80.2622
60.1217
718.744
22.6879
114.291
107.982
685.526
587.482
83.1519
450.784
441.244
68.8519
402.709
120.384
730.411
114.703
206.956
79.78
54.1437
213.301
31.8392
156.646
547.403
22.9711
248.649
424.835
349.15
225.688
156.576
71.1461
413.87
416.967
151.104
79.0008
787.875
797.075
188.47
65.2118
77.6563
216.965
182.709
140.018
15.4472
79.7781
126.648
841.685
656.29
613.347
79.0931
364.898
303.891
687.423
186.953
84.7146
446.74
778.861
174.228
125.148
347.949
46.162
204.559
488.164
79.78
404.034
171.831
345.831
154.376
442.091
79.78
79.78
82.0064
354.357
134.914
330.171
501.533
79.78
363.574
65.5288
331.703
76.9139
15.6774
125.806
143.479
80.178
514.284
182.912
78.2215
415.094
259.702
852.443
151.606
76.39
39.0503
550.732
79.7737
261.19
79.7768
132.704
742.526
76.1557
507.006
289.582
306.891
85.629
755.932
209.741
344.096
79.78
90.3351
170.844
75.3982
17.2236
17.9456
863
350.772
17.123
217.624
23.5753
348.552
575.37
551.169
79.822
514.425
491.676
28.2969
708.767
718.237
146.119
35.4698
866.805
140.006
630.146
124.879
197.856
386.508
18.9829
72.884
201.902
93.4691
283.365
124.683
71.946
395.726
775.793
37.437
459.656
79.6684
501.716
625.396
265.286
812.24
390.878
559.147
391.685
138.569
128.278
94.9387
442.563
525.678
771.073
79.7784
79.78
737.022
249.653
79.78
37.7311
336.35
148.495
578.213
19.0091
298.628
55.0432
787.707
63.4882
79.7623
167.43
296.081
356.023
69.0943
292.655
313.236
461.588
375.211
59.4629
169.635
742.219
570.281
368.496
79.7862
390.723
79.78
162.948
134.021
711.557
27.1751
130.28
252.077
645.325
612.316
79.78
69.9461
158.433
221.78
246.012
819.902
253.197
93.6558
143.837
144.478
175.035
682.425
612.423
52.1827
357.991
48.2962
28.6543
79.7813
240.26
393.115
63.889
559.777
447.983
873.163
191.587
79.78
394.865
17.5779
323.456
450.272
76.9889
114.875
94.6116
319.001
59.5981
358.925
400.812
69.2392
42.0122
14.2778
132.537
79.78
180.78
430.886
136.819
163.261
79.78
13.8232
12.5795
652.388
606.859
42.7782
250.012
490.493
407.874
779.975
777.148
410.385
327.013
679.962
28.9934
197.046
769.65
517.201
35.2371
79.6279
11.8461
70.7672
371.145
79.78
490.825
526.285
533.725
578.333
412.157
224.288
302.543
761.178
79.78
89.9818
57.2518
83.4562
79.7694
79.78
319.543
90.5799
79.78
90.9762
260.668
66.8094
522.083
99.4238
75.9958
918.402
564.631
629.002
366.711
79.7798
799.563
52.9396
56.0529
508.88
75.0374
19.6367
26.8243
180.111
134.679
76.5543
79.8328
682.571
161.331
116.123
767.108
552.715
597.001
17.6526
319.437
79.9705
175.204
80.0665
79.78
60.4004
500.681
391.349
404.789
427.391
438.007
461.563
206.457
21.9973
79.78
137.484
164.476
80.6019
361.921
150.53
95.2603
230.293
135.608
114.34
217.619
79.7799
489.547
81.8297
39.9385
429.159
256.998
279.411
488.751
867.024
284.858
51.5638
511.966
33.9195
79.6794
82.444
513.153
18.3408
103.175
686.373
79.8482
541.347
23.5903
113.296
22.407
132.311
122.669
55.6949
698.656
892.915
79.78
712.649
42.3716
169.098
188.904
772.36
712.705
128.17
296.063
45.502
858.869
79.78
79.78
391.419
538.891
126.038
249.48
136.036
738.477
345.391
773.848
175.357
710.364
129.919
831.104
127.877
51.0028
59.5394
64.9982
133.349
37.8059
76.3816
118.378
588.862
49.17
112.752
14.8669
157.046
243.389
890.704
719.04
79.9331
149.611
95.3934
392.051
79.7732
391.839
57.1855
589.945
724.679
137.94
495.292
136.199
19.6183
29.2968
426.651
417.176
374.977
37.3857
46.4093
15.5295
20.8917
76.1594
71.2018
123.727
79.78
473.634
52.111
453.889
79.78
502.439
371.957
316.643
384.094
807.307
580.465
308.895
392.867
881.604
542.805
179.33
670.057
66.3981
76.8581
143.49
79.78
80.0341
64.2534
369.056
341.973
642.059
79.78
240.845
78.1394
481.718
85.57
250.173
40.0416
23.9635
80.0987
28.8926
26.3829
23.4047
574.525
387.981
301.239
499.076
38.6877
464.554
29.3272
33.4287
510.797
87.7436
404.596
594.496
46.5282
114.92
71.1299
54.2181
27.0219
154.085
59.1713
748.967
763.247
78.9845
79.78
308.766
21.8509
189.846
76.6907
85.1017
379.109
111.373
77.7397
377.57
709.996
321.311
690.296
678.915
26.3941
154.951
71.2683
27.6237
355.555
444.365
79.7801
341.654
543.539
221.714
280.35
78.0782
378.742
126.691
261.786
158.249
374.558
79.7795
339.949
79.78
323.101
189.795
80.0373
25.0391
598.993
379.127
933.434
14.3192
236.706
305.405
91.9215
501.826
36.3154
79.78
121.543
375.864
209.559
491.485
528.536
490.164
447.65
479.077
61.6974
14.823
65.0961
17.0777
89.5057
79.7799
53.9503
79.78
238.558
324.081
79.7803
58.9437
79.7774
95.7464
842.8
79.2803
146.797
79.7627
79.6053
339.3
72.0877
339.313
139.712
34.2516
338.884
439.703
298.061
512.597
443.896
187.511
92.2701
572.185
79.3011
56.9479
847.503
366.479
442.584
421.864
23.342
524.759
348.456
62.9051
572.832
25.1633
206.14
451.834
528.023
45.396
149.582
133.508
79.7796
269.873
29.6357
330.269
215.778
651.306
80.9892
43.3249
79.78
577.415
79.7801
110.351
170.234
249.565
864.135
552.804
18.4518
181.485
64.4709
215.881
89.8405
349.714
73.5713
79.6819
75.6407
60.7766
417.346
79.78
128.956
554.086
390.439
335.19
79.78
187.819
437.376
86.6663
559.111
350.731
687.267
179
762.594
914.623
77.8592
18.3936
33.6351
13.3906
71.7076
306.749
649.535
326.967
92.2736
370.254
57.5937
63.0613
86.9386
269.181
51.8141
79.7835
505.647
711.656
863.818
296.799
53.7559
79.7811
81.8365
79.78
352.169
230.816
81.3796
620.802
545.489
64.4593
45.504
872.902
94.7884
396.844
37.7202
127.759
545.832
63.5578
674.866
26.82
102.041
197.981
373.236
109.831
275.814
207.336
171.335
635.083
76.9552
569.544
79.78
613.985
253.013
459.673
448.344
79.7938
261.708
99.2361
55.1129
445.211
266.789
124.615
222.882
114.506
209.362
98.5181
556.204
145.569
127.363
141.356
48.5973
85.5025
418.831
730.839
530.104
183.102
295.057
115.877
477.262
412.192
805.847
135.492
520.193
99.6867
53.8836
377.984
145.703
80.6429
822.238
106.535
105.906
59.4888
130.142
181.656
296.967
454.056
78.6352
240.648
37.5668
850.133
74.2835
340.137
118.156
80.4241
292.879
827.582
653.286
512.458
170.004
523.123
14.474
80.4046
145.383
605.152
302.255
530.947
272.214
50.2091
79.78
317.689
80.0657
467.042
509.616
825.665
107.895
701.889
79.78
19.8887
731.194
246.953
473.842
526.827
425.18
565.617
397.819
913.577
50.6587
90.9679
26.6911
95.7828
370.209
117.545
79.4724
512.665
76.9251
860.625
222.787
376.342
34.933
675.993
451.795
549.751
79.7796
252.021
901.973
144.289
32.7152
17.7024
79.78
64.1109
514.015
72.7051
319.513
106.81
79.7799
79.78
333.195
322.614
20.6682
206.757
75.2715
377.37
283.683
79.78
65.3905
42.9187
79.7794
141.376
175.578
502.609
840.514
268.296
506.967
382.538
183.595
181.431
147.179
809.53
273.302
151.138
231.091
491.054
383.23
172.228
340.773
147.104
168.392
215.501
119.294
277.771
522.687
154.077
63.9034
100.36
17.5984
102.458
447.408
236.992
87.2097
79.78
277.161
145.256
490.93
129.23
107.889
77.6654
66.1088
200.962
68.5692
145.25
896.378
17.9566
172.037
474.448
218.683
133.494
384.614
549.934
90.6464
211.903
377.565
201.739
859.67
459.64
379.162
438.485
382.445
683.906
449.97
73.8631
79.7797
510.491
85.2299
117.791
79.78
288.588
623.542
270.082
372.725
387.717
57.4345
270.552
153.413
72.529
115.58
77.929
290.751
62.0679
320.545
79.7908
347.782
327.369
430.781
278.928
865.399
152.781
235.205
141.449
81.8812
337.59
98.6493
551.684
461.074
282.475
217.246
337.435
273.256
284.378
200.636
15.772
299.18
129.515
154.162
397.428
22.4656
471.025
167.107
107.38
79.78
60.5309
62.1929
405.07
163.029
79.8127
436.89
591.229
83.1904
418.267
334.35
87.5338
43.2685
194.986
76.8325
420.2
485.547
152.077
109.897
497.296
402.195
47.9791