/*--------------------------------*- C++ -*----------------------------------*\
| =========                 |                                                 |
| \\      /  F ield         | OpenFOAM: The Open Source CFD Toolbox           |
|  \\    /   O peration     | Version:  2406                                  |
|   \\  /    A nd           | Website:  www.openfoam.com                      |
|    \\/     M anipulation  |                                                 |
\*---------------------------------------------------------------------------*/
FoamFile
{
    version     2.0;
    format      ascii;
    arch        "LSB;label=32;scalar=64";
    class       volScalarField;
    location    "0.001000059722";
    object      rho;
}
// * * * * * * * * * * * * * * * * * * * * * * * * * * * * * * * * * * * * * //

dimensions      [1 -3 0 0 0 0 0];

internalField   nonuniform List<scalar> 
17141
(
0.00102598
0.00103136
0.00102114
0.00348607
0.00102459
0.00328039
0.00324764
0.00113221
0.00409971
0.00346543
0.00102459
0.0010248
0.00305724
0.00102513
0.000288502
0.0034478
0.00102459
0.00331001
0.0036089
0.000501608
0.00256614
0.00102459
0.00139336
0.000230162
0.00101727
0.00102459
0.00244573
0.00102459
0.00159174
0.000613643
0.00368025
0.00102443
0.00182246
0.0035566
0.00166676
0.000633446
0.0010284
0.000958954
0.00102459
0.00330299
0.000413141
0.000927959
0.00304489
0.00426018
0.00149208
0.00329275
0.00231339
0.000601039
0.00107889
0.00248874
0.00278169
0.00102438
0.00132308
0.00390824
0.00113005
0.00182682
0.00299607
0.00286687
0.00225866
0.00355085
0.000123787
0.00154472
0.000850586
0.00102461
0.00397031
0.00316164
0.00275219
0.00328186
0.00261535
0.000960894
0.000223202
0.00372366
0.0034561
0.000993791
0.00102459
0.00102461
0.00102459
0.000324597
0.00369239
0.00102678
0.00102456
0.00404364
0.00301451
0.00102459
0.00290755
0.00296242
0.00104159
0.000569941
0.00211611
0.00102459
0.00102459
0.00333896
0.000307881
0.000374822
0.00284819
0.00102413
0.00302033
0.00281216
0.00138785
0.00331606
0.00102452
0.00317109
0.00102459
0.00102458
0.00120029
0.00421605
0.00102479
0.0024767
0.00102459
0.00102459
0.00117382
0.00187028
0.00356255
0.00391771
0.00273812
0.000371665
0.00248007
0.00297664
0.00404716
0.00379217
0.000698919
0.00102459
0.00294878
0.00280342
0.00201235
0.00153601
0.00357061
0.000402496
0.0010246
0.00283978
0.00386364
0.00102459
0.000340361
0.00102459
0.000329997
0.000105746
0.0012085
0.0037822
0.00325653
0.00126123
0.00132061
0.00242296
0.00101429
0.00391721
0.00317251
0.00101701
0.00374711
0.00271883
0.00154418
0.00102459
0.000356517
0.00198238
0.00373375
0.000214406
0.0026049
0.00102695
0.00100472
0.000395511
0.00102067
0.0010042
0.00102509
0.00314049
0.00340831
0.00122987
0.00324163
0.000991912
0.00167752
0.00145241
0.00102459
0.00103684
0.00102373
0.00102487
0.0026246
0.00102424
0.00360737
0.000228228
0.000484375
0.0028749
0.00288974
0.000273819
0.00107853
0.00185598
0.00333323
0.00095404
0.00287464
0.00103516
0.00102455
0.00111896
0.00355131
0.00176583
0.00258529
0.00303961
0.00282391
0.00146971
0.00305944
0.00390432
0.00280294
0.00102266
0.00400036
0.000321307
7.02173e-05
0.000509901
0.00267224
0.00142596
0.00398275
0.000940317
0.00107314
0.00117626
0.00396393
0.002631
0.000227995
0.00281052
0.0027065
0.00400241
0.00137791
0.00290294
0.00022669
0.00305753
0.00286787
0.000389997
0.00102459
0.00103046
0.00102458
0.00334392
0.00173878
0.00353931
0.000443061
0.00101587
0.00104687
0.00324959
0.00251439
0.00340949
0.00384982
0.00029145
0.00137496
0.00043181
0.0038408
0.00063951
0.00219797
0.000440907
0.000523434
0.00354179
0.0035982
0.00313718
0.00163918
0.0029907
0.00399699
0.00399196
0.000648853
0.00102471
0.00285298
0.00390496
0.00109972
0.00345537
0.00326058
0.00403629
0.00229131
0.00102459
0.00307047
0.00102459
0.00100278
0.00393997
0.00103276
0.000907868
0.00343838
0.00298002
0.00318414
0.000842516
0.00368126
0.00345451
0.00102458
0.00288535
0.00316317
0.00102459
0.00102455
0.00313748
7.40017e-05
0.00101402
0.000263381
0.00339876
0.00199462
0.00224376
0.00252186
0.00398803
0.000442111
0.00376856
0.0020607
0.00102458
0.00393149
0.00297444
7.848e-05
0.00099619
0.00125142
7.41048e-05
0.000872979
0.00243745
0.000219322
0.00356964
0.000138883
0.000733865
0.00102459
0.0031176
0.00268379
0.00287011
0.00102458
0.00257367
0.00288764
0.000525975
0.000998376
0.00102461
0.00340083
0.00361353
0.00390636
0.000185145
0.000871377
0.00191469
0.0027891
0.00084889
0.00330836
0.00267112
0.000201286
0.00320342
0.00401362
0.000398155
0.00339656
0.00335803
0.00173706
0.000727281
0.000178913
0.00102459
0.00332982
0.00102262
0.00161223
0.00315556
0.00102451
0.00106455
0.000973913
0.00038993
0.00402929
0.000207218
0.00229939
0.00394171
0.00351206
0.00102595
0.00102449
0.00304023
0.00152304
0.00102459
0.00388715
0.00102476
0.00102456
0.000178706
0.00196768
0.00316231
0.00402413
0.00306965
0.00129376
0.00102435
0.00102459
0.00199044
0.00102588
0.0010264
0.00101569
0.00098984
0.00043992
0.00102465
0.000935763
0.00421697
0.00154515
0.0018764
0.000993621
0.00102459
0.00357538
0.00162185
0.00224218
0.000351367
0.00217819
0.00280376
0.000198888
0.00119589
0.00102506
0.00235773
0.00102472
0.00165336
0.00256484
0.000818697
0.00125993
0.00276527
0.00102459
0.0021798
0.000983024
0.00262262
0.000844178
0.00272592
0.00102459
0.000230463
0.00416939
0.00321853
0.000255421
0.00102459
0.00102459
0.00169299
0.000424218
0.00272732
0.000336333
0.00102459
8.0486e-05
0.00102639
0.00102459
0.00102531
0.00353846
0.00362827
0.00211645
0.0027695
0.000359158
0.0028564
0.000523283
0.0018843
0.00171774
0.00306772
0.00336444
0.00102484
0.00100623
0.00314585
0.00102518
0.00399598
0.00102459
0.00102459
0.00314348
0.00322219
0.00384601
0.00304786
0.00102152
0.00102635
0.00350911
0.00102459
0.0016783
0.000521377
0.000215396
0.00214259
0.00102459
0.00102985
0.000970228
0.00102533
0.00108983
0.00128765
0.000888142
0.00341656
0.00334195
0.000900676
0.000919295
0.00259344
0.0026912
0.00381248
0.00115827
0.00255995
0.00095547
0.00252943
0.00102682
0.000259937
0.000687116
0.000526846
0.00143684
0.000816726
0.000201143
0.00385876
0.00102002
0.00102459
0.00283113
0.00117123
0.00343414
0.00180342
0.000926646
0.000221363
0.00377389
0.00102459
0.00102459
0.00391695
0.00349586
0.000504499
0.00165876
0.00268633
0.00320652
0.00102459
0.000449265
0.00361936
0.000618824
0.00102436
0.0010248
0.000220885
0.0010237
0.000236298
0.000193009
0.0010246
0.00205238
0.000555351
0.00102459
0.00213779
0.00225316
0.00199849
0.00053396
0.00271163
0.000955653
0.00349401
0.0010051
0.00175396
0.00164764
0.00102459
0.0026309
0.00240834
0.00268949
0.00357763
0.000333439
0.0035391
0.00100523
0.00337902
0.00382713
0.000477501
0.00158736
0.00102438
0.000298002
0.000995385
0.00102459
0.00239762
0.00105439
0.0010246
0.000905418
0.000975623
0.00138391
0.00103011
0.00236429
0.00245807
0.0010246
0.00190787
0.00364965
0.00102459
0.00068887
0.00202564
0.00102459
0.000334367
0.00170591
0.00249431
0.00100004
0.00315828
0.00151343
0.0010231
0.00261682
0.000522607
0.00102459
0.0010374
0.00102456
0.00411972
0.00326492
0.0015302
0.00102459
0.0030958
0.00404937
0.0029138
0.000828852
0.00317543
0.000258492
0.000217706
0.00102585
0.00123843
0.00123932
0.00102464
0.00102459
0.000103122
0.00237559
0.0010257
0.000984677
0.00306271
0.00244287
0.000412479
0.000807269
0.00283065
0.0021968
0.00268971
7.16737e-05
0.000249085
0.00316255
0.00387232
0.00268865
0.000516638
0.000184688
0.00206742
0.00276534
0.00102437
0.00143028
0.00102459
0.00226658
0.00296852
0.00410149
0.00222433
0.00309411
0.00381295
0.000715346
0.00165618
0.00101077
0.00133303
0.00371781
0.00270531
0.00102459
0.00102459
0.00389941
0.00102459
0.00102463
0.00102462
0.000859032
0.00352341
0.0038678
0.00390135
0.00269218
0.00102459
0.00127799
0.000501186
0.00101906
0.00341418
0.000305439
0.00262351
0.000663171
0.00177233
0.000398846
0.00102459
0.00104974
0.000415466
0.00386248
0.00397574
0.00303383
0.00250721
0.000309896
0.00313464
0.00102459
0.0018641
0.00102459
0.00134745
0.00102459
0.00102358
0.00102459
0.00313957
0.00300617
0.00102459
0.00102728
0.00263027
0.00102401
0.00102459
0.00172103
0.00377793
0.00116746
0.00406023
0.00102459
0.00102326
0.00114907
0.00272641
0.00290245
0.00296014
0.000142765
0.00102459
0.00234382
0.00102459
0.00175804
0.00102515
0.00388731
0.00332505
0.00102459
0.0020864
0.00100793
0.00149548
0.00245372
0.00343945
0.000687807
0.00349413
0.00166937
0.00403679
0.00282239
0.000204194
0.000235783
0.00294751
0.00320344
0.00155704
0.000991198
0.00102457
0.00404238
0.00202801
0.00171207
0.00316603
0.00102857
0.00137893
0.00256135
0.00100655
7.27083e-05
0.00223097
0.00102429
0.00278828
0.00191054
0.00102459
0.00165983
0.00132567
0.00102341
0.000362323
0.00223486
0.000393576
0.0010229
0.00412356
0.000873478
0.00102459
0.00102459
0.000902464
0.00102458
0.00384054
0.000276941
0.00102459
0.000220227
0.00331005
0.0026613
0.00376463
0.00270525
0.00102459
0.0010297
0.00353029
0.000326208
0.00102459
0.00133046
0.000259752
8.89575e-05
0.00290478
0.00260688
0.000827307
0.000380616
0.000478627
0.00115772
0.00275471
0.00336569
0.00161345
0.00307011
0.00262414
0.00338453
0.00308519
0.00377011
0.00265759
0.00285041
0.00126323
0.0039725
0.00322288
0.00395545
0.00120653
0.00318007
0.00266604
0.00258395
0.00389548
6.50017e-05
0.000949703
0.00102461
0.00364822
0.00100643
0.00301504
0.00143698
0.00391098
0.00101625
0.000902482
0.00324746
0.00118525
0.00302955
0.00322332
0.00394578
0.00275331
0.00102459
0.00102459
0.00102562
0.00184452
0.00102459
0.000440372
0.00068307
0.0027063
0.0010278
0.000306167
0.00102459
0.00346268
0.00390703
0.00208311
0.0013807
0.00129937
0.00227272
0.00334748
0.00102459
0.00267905
0.000229622
0.000996658
0.00359735
0.00101247
0.00274031
0.000452929
0.00208689
0.00158004
0.00102459
0.0030671
0.00249576
0.00102457
0.00102459
0.00356414
0.00295667
7.23886e-05
0.00102458
0.00295164
0.000922635
0.00164957
0.00132493
0.00102458
0.000353675
0.00370899
0.000462381
0.00285743
0.00105391
0.000311828
0.00248289
0.00417926
0.000522755
0.000939332
0.00103687
0.000479902
0.00102459
0.0028107
0.00255222
0.00322895
0.00102449
0.00114617
0.00297153
0.00377235
0.00252058
0.00106326
0.00395331
0.000198589
0.00103258
0.00273594
0.0016234
0.00131974
0.00128221
0.00263983
0.00104908
0.0010246
0.000235462
0.00102459
0.00102459
0.000781981
0.000228606
0.00102377
0.000676449
0.00102459
0.00169582
0.00264412
0.0010255
0.00166149
0.00102459
0.00136591
0.00216239
0.00102459
7.35422e-05
0.00349428
0.000997965
0.00362981
0.00270976
0.000875673
0.00356749
0.00250426
0.00102532
0.00266803
0.00051317
0.00145195
0.00104664
0.00101714
0.00242808
0.000401248
0.00163425
0.00118671
0.00114596
0.0023911
0.000245092
0.00306997
0.00351638
0.00307912
0.00102461
0.00320335
0.000335631
0.0014152
0.00255077
0.00303591
0.000827996
0.00198297
0.00104835
0.00285766
0.00233486
0.00102546
0.000324513
0.00138995
0.0041815
8.41956e-05
0.00257313
0.000138085
0.00102449
0.0025734
0.00280453
0.00113455
0.00247227
0.000857764
0.00302407
0.00301906
0.000391974
0.00256263
0.00336602
0.002821
0.00102459
0.00102459
0.00102459
0.00126635
0.00248697
0.00391535
0.00102459
0.00343546
0.00149884
0.000849675
0.000520513
0.00271711
0.00102459
0.00309066
0.000375087
0.00208004
0.00390856
0.00102459
0.00213333
0.00212418
0.000962525
0.00168282
0.00281773
0.00102447
0.00102459
0.00102459
0.00290101
0.00218028
0.00102459
0.00394792
0.00035817
0.00175692
0.00218485
0.00300101
0.00407788
0.00102459
7.46252e-05
0.00102474
0.00102459
0.00107477
0.00153357
0.0023046
0.00405241
0.00102459
0.000355748
0.00112081
0.00190638
0.00102459
0.000206594
0.00254949
0.000433671
0.00102429
0.000313876
0.000352786
0.00370487
0.00102459
0.00160512
0.000435168
0.00022831
0.0010246
5.70439e-05
0.000439911
0.00102459
0.001028
0.00132511
0.00102578
0.00102459
0.000998814
0.000196795
0.00295456
0.00318708
0.00374686
0.000436525
0.00037915
0.00102459
0.00351352
0.00297334
0.00103421
9.92798e-05
0.00102458
0.000212766
0.00251401
0.00102452
0.00102459
0.00396602
0.000395199
0.00103521
0.0026241
0.00102459
0.00329986
0.00320719
0.00331993
0.00348423
0.00353612
0.00255609
0.000911479
0.00324726
0.00113261
0.00133206
0.00416607
0.00390981
0.000274802
0.00164552
0.000597459
0.00102459
0.00103347
0.00102459
0.00113566
0.00388333
0.00129431
0.000443394
0.000509685
0.000200189
0.00151632
0.000507475
0.000767676
0.00102438
0.00102459
0.00346368
0.000915544
0.000357248
0.00404047
0.00152935
0.00391561
0.00418769
0.00123278
0.00370043
0.00277787
0.00353744
0.00255507
0.00330399
0.00102459
0.00325906
0.000440218
0.00102459
0.00186514
0.00254363
0.000298911
0.00104521
0.000431802
0.000999287
0.00399979
0.00340061
0.00102438
0.0011354
0.000165182
0.00383349
0.00183566
0.00266295
0.00102459
0.00143302
0.00078728
0.00212927
0.00326926
0.000501856
0.00102459
0.00102459
0.000367407
0.000399846
0.000204339
0.00122661
0.00104476
0.00246683
0.0010246
0.00305115
0.000326077
0.00105004
0.000178002
0.0010766
0.000470322
0.00150937
0.00290611
0.00106459
0.00146816
0.000196975
0.00107052
0.0028199
0.00218614
0.00283671
0.00341438
0.000546515
0.00369771
0.00224252
0.00339134
0.00293135
0.00221747
0.00392168
0.0038147
0.000204634
0.00105758
0.00102427
0.00352083
0.0034616
0.000867257
0.00321271
0.00102459
0.00102459
0.00102459
0.00273326
0.003014
0.00102442
0.00102459
0.00102957
0.00102459
0.00398428
0.00382757
0.000127884
0.0010238
0.00100759
0.00369047
0.0011902
0.000229751
0.00102459
0.00358791
0.000295849
0.00145122
0.00100334
0.00351763
0.000378098
0.00354198
0.00196932
0.00056281
0.00102633
0.00230316
0.00102468
0.00353602
0.00096193
0.00363164
0.00142933
0.000982536
0.0024935
0.000505834
0.0036827
0.00102459
0.00102461
0.00102459
0.00102458
0.003348
0.000384046
0.00372546
0.00203606
0.00238448
0.00102455
0.0010244
0.000217849
0.00344236
0.003067
0.000983754
0.0030268
0.00301476
0.00139181
0.00404944
0.00102459
0.00102459
0.000236802
0.000390005
0.00197351
0.00102459
0.000940656
0.000320812
7.24039e-05
0.00279273
0.0010249
0.00284022
0.00180474
0.00102487
0.00102458
0.000298639
0.00128171
0.00143172
0.000308513
0.00119756
0.001025
0.00188416
0.00227193
0.00356307
0.000973137
0.00206056
0.00102459
0.0034168
0.00380447
0.00111381
0.00158403
0.000926758
0.00304849
0.0015745
0.00289366
0.00102459
0.0010246
0.00363902
0.00217045
0.000877153
0.00130647
0.000297078
0.00102458
0.00257295
0.00352752
0.00270588
0.00272822
0.000188941
0.00137558
0.0030863
0.0040819
0.00278812
0.000178664
0.00426805
0.00392715
0.00143532
0.00129935
0.00249205
0.00288492
0.00109224
0.00271578
0.003257
0.00102464
0.00282787
0.00422631
0.00102459
0.000677736
0.00378059
0.00281743
0.00102459
0.00383893
0.00102459
0.000961514
0.000369555
0.00187874
0.00098498
0.00102459
0.00102459
0.00351297
0.000188599
0.00102459
0.00065375
0.00271517
0.00410278
0.00102459
0.00238735
0.00341221
0.0010665
0.00256827
0.00100302
0.000873748
0.00244945
0.00139361
7.52717e-05
0.00267359
0.00400936
0.00290874
0.00171529
0.000210006
0.000339608
0.00132988
0.000228397
0.00144959
0.0010251
0.00274765
0.00158217
0.00368599
0.00282353
0.00102459
0.00257596
0.00102188
0.00390338
0.00102468
0.00102604
0.00115926
0.000206226
0.00102461
0.00242075
0.00102459
0.002795
0.00033261
0.000226995
0.00363435
0.00102459
0.00342286
0.0010263
0.00153276
0.00102459
0.00070662
0.00051631
0.00101794
0.00102459
0.00356975
0.000240517
0.00324748
0.00257971
0.000366238
0.00289451
9.96322e-05
0.00219348
0.00114934
0.00102459
0.00102459
0.000505033
0.00411603
0.00102459
0.00259882
0.00102459
0.00295299
0.000380572
0.00102061
0.00250917
0.000520404
0.00278088
0.000635213
0.00178034
0.00134149
0.000372359
0.00134347
0.00140156
0.00404873
0.00339441
0.00290704
0.00303644
0.00102459
0.00102459
0.0010324
0.00101998
0.00152659
0.00102459
0.00102459
0.00159669
0.00324565
0.00237423
0.00168934
0.00102459
0.00102456
0.00269334
0.000963656
0.00392464
0.00036609
0.00274956
0.000194519
0.00296925
0.00102457
0.00336932
0.00136211
0.00267665
0.00102459
0.00336618
0.00102458
0.00102459
0.00102459
0.000176366
0.00141332
0.000971244
0.000228949
0.00122106
0.000428049
6.15386e-05
0.0040057
0.00105501
0.00221512
0.000989822
0.00102459
0.00249089
0.00260833
0.00102658
0.00268872
0.00102459
0.00196752
0.00104286
0.00041231
0.00285649
0.00234524
0.00100442
0.00102459
0.00210898
0.003903
0.00263311
0.00403837
0.000868861
0.000984916
0.00107188
0.00102456
0.000314455
0.00242063
0.0030221
0.00102459
0.000273166
0.00102684
0.00353897
0.00296758
0.00164295
0.00102459
0.000192784
0.00102457
0.00102459
0.00353239
0.00102459
0.00345869
0.000969584
0.00167482
0.00290604
0.00231765
0.00164216
0.00184265
0.00174336
0.0012368
0.000482362
0.00111302
0.00155005
0.00102459
0.000412654
0.00022868
0.00102461
0.002411
0.00266333
0.00173405
0.000258012
0.00266661
0.00218089
0.00407429
0.00212263
0.000520954
0.00290248
0.000275329
0.00229628
0.0020793
0.00102458
0.00150041
0.000959365
0.00363503
0.00387619
0.00181419
0.00294803
0.00241336
0.00318439
0.00105501
0.0039086
0.00392995
0.00351869
0.00137283
0.00102459
0.00102466
0.00176363
0.00328766
0.000444058
0.00102459
0.0020563
0.00102546
0.00102451
0.00102459
0.000929271
0.0019817
0.00152066
0.00160913
0.00333259
0.000964004
0.00022293
0.00255971
0.00177284
0.00285092
0.00334775
0.00102458
0.00102863
0.000948548
0.000562096
0.00102459
0.00131407
0.00110057
0.000979854
0.00285217
0.00102459
0.00144151
0.00153024
0.000994052
0.00287069
0.00102459
0.00102535
0.00102459
0.00276427
0.00131434
0.0030467
0.00102459
0.000102038
0.00152436
0.00388178
0.00182531
0.00365984
0.00310556
0.000459913
0.0024589
0.00221282
0.00401884
0.00374197
0.00342958
0.000204725
0.00102459
0.00102496
0.00102463
0.00102367
0.00180996
0.00243882
0.00379769
0.00102447
0.00103229
0.00322989
0.00102508
0.00132881
0.00102651
0.000184982
0.00103682
0.00248525
0.00259997
0.00269865
0.000784614
0.00102458
0.00330464
0.00113151
0.000192537
0.00102459
0.000551321
0.00401407
0.00102464
0.00319156
0.00282517
0.00301424
0.000457122
0.00101633
0.000465439
0.000982698
0.00102417
0.000809258
0.00102445
0.00102459
0.000639271
0.00343606
0.000234367
0.00102526
0.00102543
0.00338499
0.00360639
0.00102521
0.000265007
0.00102459
0.00369979
0.000522066
0.00109585
0.00129907
0.00150612
0.000373909
0.00156476
0.00192166
0.00410638
0.00148098
0.00279711
0.00282791
0.00243714
0.00105525
0.00304103
0.000158067
0.000139668
0.000472564
0.00273828
0.00359317
0.000696142
0.00102459
0.00048716
0.000344199
0.00102459
0.00258381
0.00261677
0.00102599
0.00152712
0.00277042
0.00365476
0.00139948
0.00102459
0.001471
0.00271528
0.00102457
0.00102459
0.000965879
0.00335679
0.00346672
0.00327057
0.00263882
0.000138317
0.00175957
0.00259326
0.00375206
0.00137455
0.00101748
0.00240255
0.000283666
0.00165897
0.00276699
0.00181944
0.00107548
0.00302255
0.00160203
0.00405055
0.00102462
0.000883008
0.002522
0.000204844
0.00268055
0.00102459
0.000474591
0.0012316
0.00277861
0.00102569
0.00251701
0.00214385
9.53054e-05
0.00111132
0.00210678
0.00377432
0.00106421
0.000387192
0.00325685
0.00162067
0.00297267
0.00102459
0.000289811
0.00412264
0.00242517
0.00102459
0.00240782
0.00125755
0.000625037
0.0010252
0.00281429
0.00163227
0.00188943
0.00392321
0.000348111
0.000128353
0.00102762
0.00249298
0.000906091
0.00303651
0.000431432
0.00375232
0.00406075
0.00102459
0.00162784
0.000237954
0.000419486
0.000483513
0.00301815
0.000858348
0.00102459
0.00375309
0.00102459
0.00322177
0.00087594
0.00101279
0.00374095
0.000476525
0.00278535
0.002451
0.000281229
0.00084701
0.00203253
0.00296233
0.00102459
0.00331792
0.00220949
0.000468215
0.000485362
0.000251668
0.00218963
0.00203498
0.00151679
0.00294554
0.00102447
0.00145505
0.000858959
0.00262209
0.00136318
0.00340168
0.00245942
0.00206263
0.00210452
0.00272497
0.000245912
0.000873574
0.00033504
0.000510937
0.0026677
0.00102459
0.00100469
0.00102459
0.000286563
0.00162381
0.00019791
0.00116083
0.000240226
0.00100022
0.00391463
0.000721896
0.00102459
0.00126028
0.00099252
0.00102459
0.000691841
0.00190982
0.00102459
0.00102459
0.00154793
0.00240914
0.000215459
0.00102471
0.00102459
0.00181149
0.00155672
0.000233869
0.00399562
0.00348147
0.00023771
0.00118314
0.00265708
0.00102459
0.00123224
0.00353782
0.0026683
0.00273122
0.00269644
0.000199757
0.00130183
0.000677149
0.00134202
0.0010246
0.000220531
0.00102459
0.00174195
0.000409731
0.0010246
0.00285658
0.0028429
0.000370691
0.00279442
0.000320031
0.00264329
0.00265194
0.00148563
0.000247838
0.00143811
0.00102459
0.00102459
0.0034232
0.00102459
0.00407147
0.00348479
0.00102408
0.0024007
0.00239698
0.00369738
0.00102563
0.00417207
0.00102459
0.000182503
0.000241095
0.00196471
0.00102691
0.00127763
0.000904065
0.00317121
0.00393548
0.00106386
0.00206935
0.000230204
0.00262179
0.000553662
0.000290404
0.0010246
0.000738603
0.00270546
0.0010246
0.00404047
0.00117729
0.00360737
0.00134851
0.00101945
0.00347403
0.0010246
0.00157898
0.00203676
0.00102463
0.00147687
0.00227203
0.000682586
0.00317142
0.00290023
0.00186103
0.00276286
0.00396358
0.00291087
0.000771248
0.00132398
0.00102459
0.00102128
0.00197388
0.00318945
0.00262714
0.00102459
0.000233531
0.00356686
0.000965603
0.0012497
0.0020634
0.00102484
0.00114429
0.00102459
0.00102459
0.00191907
0.00221421
0.00277768
0.00038442
0.000654403
0.000340576
0.00393256
0.00102457
0.000919707
0.00142102
0.00017924
0.000409945
0.00149138
0.000469093
0.00152232
0.00317773
0.00195557
0.000445884
0.00373373
0.00166664
0.00102459
0.00102459
0.00142674
0.00353176
0.00102577
0.000124948
0.00255401
0.000396007
0.00102459
0.00312349
0.00209304
0.00102459
0.00278277
0.00201508
0.000191425
0.00197774
0.000859909
0.00307217
0.00289546
0.00216817
0.00266249
0.00397946
0.00199774
0.00102459
0.0035265
0.00279712
0.00137271
0.00102455
0.00425855
0.000291113
0.0022592
0.00399338
0.000344819
0.000298339
0.00102616
0.00204046
0.00102459
0.00323903
0.000732693
0.0040455
0.00203236
0.0015485
0.00295567
0.000659638
0.00116796
0.00299708
0.00174725
0.00100624
0.00246467
0.0021268
0.000947424
0.0024955
0.000724654
0.00111554
0.000858296
0.000343202
0.00134004
0.000745463
0.00233337
0.00102459
0.00251466
0.00102459
0.00102459
0.000614765
0.00102446
0.00145029
0.000329709
0.00361762
0.000955113
0.0038649
0.000961645
0.00102459
0.00301193
0.00254158
0.00108341
0.00286713
0.000922967
0.000326815
0.00413099
0.00306985
0.00190681
0.00413693
0.000379337
0.00226452
7.60272e-05
0.00256764
0.00388852
0.00124363
0.00102459
0.00336477
0.00211705
0.00332359
0.00102536
0.000529761
0.00328643
0.00075515
0.00182427
0.00102626
0.00284741
0.000996322
0.00275192
0.00102459
0.0012783
0.00265352
0.00102459
0.00129437
0.00120098
0.00302171
0.00247881
0.000542613
0.00103315
0.00367318
0.00045876
0.000237199
0.000329604
0.000874993
0.00102459
0.00191944
0.00276587
0.00411969
0.000247307
0.00102459
0.000192091
0.00102459
0.00147456
0.0015948
0.00301146
0.00252792
0.00328822
0.000565147
0.0013449
0.0002769
0.00204072
0.00140063
0.0027881
0.00109392
0.00065308
0.00203192
0.00375758
0.00265037
0.00300701
0.00135713
0.000889816
0.0015295
0.00325447
0.000317082
0.00126558
0.00041641
0.00248645
0.00102459
0.00278174
0.00102459
0.00401599
0.00277289
0.00102459
0.00399333
0.00102459
0.000235085
0.00393996
0.00136417
0.000788942
0.00102459
0.00342407
0.00101373
0.000298537
0.00102459
0.00120671
0.0013379
0.00249558
0.00105251
0.00237399
0.000468287
0.00249253
0.00295737
0.00100341
0.00112921
0.00253658
0.00264369
0.00400525
0.00247416
0.00102459
0.000772059
0.00102459
0.00245178
0.000951852
0.00156371
0.00133701
0.00141185
0.000857567
0.000592481
0.00233606
0.00102459
0.00154835
0.00284709
0.00169928
0.00208242
0.00129756
0.000193831
0.00250993
0.00102621
0.00329735
0.000715936
0.00242416
7.82933e-05
0.00226568
0.00388358
0.00102089
0.0010246
0.000501119
0.00102508
0.000530597
0.000901966
0.00102459
0.00102884
0.00277477
0.0010248
0.00312723
0.00102456
0.000758762
0.000254676
0.00191191
0.00102459
0.00102459
0.00102553
0.000194737
7.50436e-05
0.00102459
0.00097758
0.00250506
0.00239558
0.00263708
0.00187945
0.00260739
0.000962107
0.002461
0.00102459
0.00123729
0.000543395
0.000530821
0.0028368
0.00102267
0.00102606
0.000724835
0.00137124
0.000347535
0.00411891
0.0025482
0.00266819
0.00102459
0.0036875
0.00039153
0.000277076
0.00102221
0.000183066
0.00290832
0.000220785
0.00353609
0.00250195
0.00102482
0.000973631
0.000396155
0.00023413
0.00102423
0.000240236
0.000431752
0.00111241
0.00177859
0.000958736
0.00325885
0.000393448
0.00262491
0.000244807
0.00102459
0.00102459
0.00100283
0.00151726
0.00321477
0.000975369
0.00154101
0.00262429
0.00125759
0.00102464
0.00296505
0.00258956
0.00303897
0.0028849
0.00102513
0.000855008
0.00028753
0.00102459
0.0010246
0.00102459
0.00394003
0.00389916
0.000417789
0.00100783
0.00279419
0.00023058
0.00102464
0.00297356
0.000969952
0.000752981
0.00256798
0.0011799
0.00379251
0.00283894
0.00118235
0.000978055
0.00262544
0.00283455
0.000338548
0.00102463
0.000252633
0.00297085
0.000224692
0.00270064
0.00112235
0.00374518
0.00254653
0.00333851
0.00215833
0.00309116
0.00120166
0.000209585
0.000956392
0.00102389
0.000641869
0.00162758
0.00264218
0.00102491
0.00115816
0.0028549
0.0014903
0.00405198
0.00307114
0.000521267
0.00158593
0.00290523
0.00102459
0.00273782
0.00239787
0.000281229
0.00305277
0.00267029
0.00131634
0.00355585
0.00102459
0.00275751
0.00102459
0.00272545
0.00232771
0.00102459
0.00129242
0.00102459
0.00310611
0.00327859
0.00403914
0.00411487
0.00102764
0.00313502
0.0010018
0.00139095
0.00230036
0.00409349
0.000989165
0.00128574
0.00102476
0.00299644
0.00374209
0.0024976
0.00124165
0.00376904
0.00184274
0.000759863
0.00304372
0.000764768
0.00102374
0.00194631
0.00246334
0.00053038
0.000217509
0.00123124
0.00102459
0.00103808
0.00102459
0.00132017
0.00381439
0.00102459
0.00102459
0.00102451
0.00102439
0.00206478
0.00268513
0.00255525
0.00317716
0.00102459
0.00122532
0.00409147
0.00131879
0.00102459
0.00100823
0.00244508
0.00026454
0.00143006
0.00127704
0.00368881
0.00407555
0.00122864
0.00376327
0.00136736
0.00369583
0.00102465
0.000958843
0.00102449
0.00380863
0.00139661
7.15837e-05
0.0031135
0.00139126
0.00215581
0.0026062
0.00205303
0.00177531
0.00285266
0.0041166
0.000448672
0.00222862
0.00376464
0.00315919
0.000934457
0.00244273
0.000189683
7.41401e-05
0.00319411
0.00407742
0.000243364
0.00272848
0.00343219
0.00397283
0.00102459
0.0038823
0.00153828
0.00102459
0.00156535
0.000282278
0.00102467
0.00102459
0.00200184
0.000212202
0.00090074
0.000858222
0.00102459
0.00260832
0.00109146
0.00103285
0.00295141
0.000316251
0.00102459
0.00128983
0.00254619
0.000530121
0.00304874
0.00127535
0.0022956
0.000258115
0.000927466
0.00180783
0.000956157
0.000956472
0.00149102
0.00197698
0.0010262
0.0038586
0.00151039
0.00145546
0.000997792
0.00346493
0.00362533
0.00102489
0.00249542
0.00143051
0.00367557
0.00399965
0.000453826
0.00381072
0.00102446
0.00380649
0.000317991
0.000204398
0.00316884
0.00236274
0.000210873
0.00156709
7.73007e-05
0.00102459
0.0020387
0.00280619
0.00338414
0.00242192
0.000305258
0.00102459
0.0014827
0.00102465
0.00356485
0.00102459
0.000465867
0.00101281
0.00102459
0.00403551
0.00275491
0.00295104
0.00319332
0.00389336
0.00142689
0.00181407
0.00102459
0.000193617
0.0035531
0.00349037
0.00102449
0.00215407
0.000320443
0.00327922
0.000394143
0.00398165
0.00148887
0.00101764
0.00395653
0.00391956
0.000645939
0.00102459
0.0027464
0.00239009
0.00346039
0.00328453
0.00102459
0.00350351
0.000990866
0.000300595
0.00102459
7.69477e-05
0.00030554
0.00297825
0.00112589
0.00224945
0.00373144
0.00084723
0.00191109
0.00404119
0.00239924
0.00257961
0.000999808
0.00099257
0.000908652
0.000715284
0.00159312
0.000957676
0.00128148
0.00133871
0.00100195
0.000987631
0.00380602
0.000975864
0.00145463
0.00122855
0.00145523
0.00102459
0.00260479
0.000198171
0.000351437
0.000961531
0.00273037
0.00195696
0.000867096
0.000788039
0.000260207
0.00153414
0.00283003
0.00328451
6.41733e-05
0.00297717
0.00169124
0.00270204
0.00102451
0.00374886
0.00102459
0.00037071
0.00156584
0.00201398
0.000880225
0.00121074
0.00330141
0.000491482
0.00407699
0.00362321
0.000243635
0.000241317
0.00249807
0.00374244
0.00102459
0.0023498
0.00102459
0.00121656
0.00128833
0.0023571
0.00349468
0.00162389
0.00287581
0.00182206
0.00101906
0.00215367
0.00066084
0.00192959
0.00102459
0.00273964
0.00313168
0.00323096
0.00118005
0.000596541
0.00239365
0.000804877
0.00102436
0.00423802
0.0028823
0.00102451
0.00357751
0.00349382
0.00173891
0.00102531
0.00133118
0.00291112
0.00102459
0.00166723
0.00291218
0.00404818
0.000295943
0.00165052
0.0016549
0.00179734
0.00398131
0.00107973
0.000588939
0.00161112
0.00354628
0.00273395
0.00298786
0.00102459
0.00354459
0.00106162
0.00102459
0.00294728
0.000521387
0.00169952
0.0012663
0.00145609
0.00292835
0.00115763
0.00332937
0.00102459
0.00244995
0.00334575
0.00102459
0.00153901
0.00105038
0.000323987
0.000354561
0.0010279
0.00391095
0.00235839
0.000872554
0.00120854
0.00157107
0.00308364
0.00273748
0.00312328
0.00102363
0.00102459
0.00140871
0.000639219
0.0013035
0.00173079
0.00130367
0.00325542
0.00366959
0.000280921
0.000522035
0.00168815
0.00378478
0.000507681
0.00111524
0.0038899
0.000193166
0.0032905
0.00102454
0.00121634
0.00399422
0.000513137
0.00041147
0.000368749
0.00269838
0.000917137
0.000960405
0.00102479
0.00119102
0.00102459
0.00270062
0.00361926
0.00351893
0.00101139
0.00422162
0.000673858
0.00155229
0.00328241
0.00203288
0.00305695
0.00265658
0.0019794
0.00102543
0.00332885
0.00380939
0.000254766
0.00102407
0.00191847
0.00102459
0.00100471
0.0010246
0.00102459
0.00102459
0.00102459
0.000996546
0.00183552
0.00099672
0.00260164
0.000228672
0.00270098
0.00112007
0.00089019
0.000165263
0.00150239
0.000266075
0.00148975
0.00256405
0.0037245
0.00326022
0.000289137
0.000424953
0.00275662
0.00167117
0.00102459
0.00373509
0.00269497
0.0010306
0.00339991
0.00101864
0.000438738
0.00065743
0.000227432
0.00100135
0.000361858
0.00315271
0.000165023
0.00158311
0.00320557
0.000216674
0.000913042
0.000746948
0.00106819
0.00212994
6.28352e-05
0.00410486
0.00290598
0.00223931
0.00354628
0.00122671