/*--------------------------------*- C++ -*----------------------------------*\
| =========                 |                                                 |
| \\      /  F ield         | OpenFOAM: The Open Source CFD Toolbox           |
|  \\    /   O peration     | Version:  2406                                  |
|   \\  /    A nd           | Website:  www.openfoam.com                      |
|    \\/     M anipulation  |                                                 |
\*---------------------------------------------------------------------------*/
FoamFile
{
    version     2.0;
    format      ascii;
    arch        "LSB;label=32;scalar=64";
    class       volScalarField;
    location    "0.001000059722";
    object      T;
}
// * * * * * * * * * * * * * * * * * * * * * * * * * * * * * * * * * * * * * //

dimensions      [0 0 0 1 0 0 0];

internalField   nonuniform List<scalar> 
17141
(
270.798
271.651
270.339
614.038
270.649
573.771
567.307
488.909
738.653
636.148
270.65
270.669
660.206
270.848
286.885
580.155
270.65
582.14
667.87
427.016
448.243
270.65
361.703
266.941
269.921
270.65
622.829
270.65
437.496
363.644
649.589
270.64
399.019
637.661
505.399
351.14
271.081
336.644
270.65
567.342
302.576
334.762
531.8
782.165
432.114
577.289
491.9
345.832
276.059
461.428
464.149
270.634
351.668
724.01
284.624
411.371
512.092
485.929
488.68
641.394
376.145
355.5
413.675
270.645
738.53
528.678
467.854
578.497
469.256
251.672
253.598
709.479
583.616
266.531
270.65
270.654
270.65
330.358
698.282
270.873
270.641
740.294
534.876
270.65
630.295
660.273
276.776
355.867
443.962
270.65
270.65
594.518
284.867
292.896
491.036
270.624
516.706
462.997
360.542
553.186
270.649
540.903
270.65
270.649
299.684
777.345
269.2
533.606
270.65
270.65
453.992
414.345
644.769
686.767
472.015
294.237
483.159
580.402
690.192
695.212
306.45
270.65
494.932
495.429
413.282
376.502
646.202
284.733
270.651
488.549
730.1
270.65
330.335
270.65
702.792
452.814
495.777
695.753
532.691
511.472
352.577
445.703
269.387
711.843
699.021
270.298
742.869
458.135
434.607
270.65
289.046
414.244
706.013
251.431
589.277
270.065
268.311
284.836
270.213
267.473
270.823
546.367
566.181
339.96
585.09
263.626
504.647
375.5
270.65
275.659
270.476
270.396
447.965
270.548
734.749
250.057
339.482
653.818
503.319
281.136
279.882
396.703
570.725
260.683
651.81
420.399
270.649
290.032
611.541
391.585
449.337
512.368
480.89
344.425
698.301
722.306
618.112
319.013
725.949
714.24
794.685
408.901
530.559
373.133
744.602
402.579
426.289
292.876
722.988
441.019
250.419
496.492
503.493
742.489
500.168
520.329
249.375
519.713
477.467
298.789
270.65
272.073
270.649
608.834
394.389
600.741
584.486
270.746
279.11
532.11
559.292
596.158
685.156
282.908
328.688
306.994
648.017
350.932
468.258
592.841
298.822
631.588
739.385
564.751
399.23
623.836
732.798
723.226
356.033
270.512
482.797
696.286
471.443
598.899
562.665
738.509
422.493
270.65
521.471
270.65
266.492
723.41
271.41
335.679
719.28
505.443
546.697
416.675
698.747
714.07
270.649
499.539
532.101
270.65
270.647
547.455
893.321
405.862
282.3
605.282
546.886
546.068
433.814
695.653
330.931
682.321
456.121
270.651
756.524
536.546
679.767
268.021
342.319
859.115
334.148
459.091
252.396
639.521
611.404
359.342
270.65
526.803
582.465
490.623
270.649
641.402
632.218
422.324
269.749
270.652
589.219
667.394
679.502
314.621
320.138
524.16
525.527
319.286
583.833
604.22
254.141
559.482
743.376
287.589
578.723
602.735
395.892
356.978
274.75
270.65
717.195
270.342
498.112
607.824
270.643
278.172
256.356
287.765
751.587
244.114
422.711
702.563
720.159
270.783
270.641
523.687
436.055
270.65
731.756
270.675
270.646
271.183
417.317
605.519
748.61
522.564
387.012
270.661
270.65
545.826
270.753
270.475
269.786
266.73
393.571
270.642
250.189
745.301
378.14
535.775
267.199
270.65
649.899
497.701
548.875
286.542
426.11
646.559
428.734
481.878
270.705
643.736
270.664
402.449
440.973
384.371
342.691
460.609
270.65
425.467
337.068
579.674
412.024
459.766
270.65
295.56
723.097
673.976
787.073
270.65
270.649
400.04
283.467
524.034
324.35
270.65
626.482
270.866
270.65
270.729
616.766
663.027
594.528
459.908
428.497
489.654
344.755
537.176
393.358
600.146
696.265
270.671
268.162
548.153
270.635
705.995
270.65
270.65
668.692
667.944
750.756
542.653
269.966
270.824
635.589
270.65
383.516
417.089
246.8
488.803
270.65
271.061
260.201
270.723
285.978
486.061
249.965
600.935
573.201
390.438
250.088
602.716
472.682
689.467
450.982
469.525
262.598
443.772
271.257
256.516
394.291
413.811
351.643
384.86
255.769
750.988
269.449
270.65
499.916
306.371
662.458
410.729
318.765
258.005
688.058
270.65
270.65
737.792
604.347
407.903
397.859
469.316
607.641
270.65
439.109
700.641
350.725
270.61
270.669
436.44
270.543
246.724
262.295
270.65
411.609
347.385
270.65
556.695
587.485
592.53
400.241
470.238
254.402
712.663
268.808
408.175
391.68
270.65
659.793
556.763
457.589
630.276
413.459
630.12
267.424
598.067
728.089
312.987
398.966
270.649
302.636
267.182
270.65
434.364
283.236
270.67
317.839
261.143
329.015
268.905
600.814
557.144
270.651
434.611
627.357
270.65
306.789
612.295
270.65
282.886
447.533
536.863
265.954
531.256
375.789
270.48
539.289
408.428
270.65
489.71
270.651
734.098
588.211
342.392
270.65
549.342
740.932
503.914
323.172
550.546
800.234
246.931
270.791
461.076
448.654
270.665
270.65
558.832
646.721
270.777
261.191
731.179
488.141
286.664
322.645
476.53
467.734
527.516
860.707
257.679
541.303
709.53
450.693
421.81
291.559
448.595
717.08
270.199
505.996
270.65
427.293
515.78
752.484
583.579
604.57
748.524
400.44
447.027
269.216
491.629
671.476
506.871
270.65
270.65
720.648
270.65
270.664
270.654
609.913
718.333
633.619
641.127
564.938
270.65
402.969
433.766
269.939
607.66
265.379
500.059
300.292
526.297
285.078
270.65
516.126
421.527
687.386
722.048
519.694
561.875
280.985
665.816
270.65
405.83
270.65
551.696
270.65
269.946
270.65
527.668
512.444
270.65
271.005
557.996
270.452
270.649
451.838
700.101
292.254
743.226
270.65
270.408
297.144
580.744
492.833
507.506
649.561
270.65
654.929
270.65
524.187
270.733
758.293
579.459
270.65
553.689
268.417
376.902
510.581
635.024
522.516
613.087
403.797
734.284
477.302
486.194
305.936
488.989
548.093
377.155
273.707
270.647
749.496
415.119
389.555
531.647
271.131
517.512
436.171
268.732
884.261
588.967
270.629
486.084
414.727
270.65
405.245
376.189
270.666
296.384
451.407
291.514
270.455
754.194
318.195
270.65
270.65
319.427
270.649
709.976
285.286
270.65
250.026
550.851
605.138
674.947
451.699
270.65
271.518
637.226
285.884
270.65
322.427
255.757
538.793
490.218
605.548
416.716
291.01
290.043
413.104
462.773
615.756
388.265
651.538
448.429
700.372
619.507
687.057
630.635
482.675
401.234
710.4
612.307
736.378
415.565
552.868
544.878
639.183
726.185
816.098
401.733
270.652
646.028
268.5
659.657
539.501
738.441
269.675
377.854
593.983
337.765
507.519
552.486
737.435
456.488
270.65
270.65
270.855
520.129
270.65
285.894
351.522
459.981
270.866
305.257
270.65
598.09
708.747
450.114
371.255
497.977
467.969
698.458
270.65
515.441
244.094
267.417
631.564
269.334
461.296
313.457
571.387
371.558
270.65
534.38
526.679
270.648
270.65
675.412
563.869
845.915
270.65
565.789
342.379
576.924
340.673
270.643
339.529
667.178
447.188
499.289
284.21
280.798
509.349
760.931
410.937
342.228
272.324
327.906
270.65
616.002
443.962
533.951
270.541
442.139
511.69
678.675
536.277
275.03
720.054
248.774
379.416
496.229
572.985
369.743
327.446
564.557
506.888
270.662
251.618
270.65
270.65
508.869
249.449
270.557
349.458
270.65
385.308
631.624
270.873
383.496
270.649
371.871
432.411
270.65
874.175
683.867
318.438
698.097
455.133
375.515
650.411
459.957
270.735
466.845
400.368
431.067
376.801
269.504
536.688
325.675
421.703
447.835
523.087
491.111
273.601
514.843
604.295
527.426
270.638
547.904
649.819
329.863
538.876
527.212
321.174
684.773
381.853
498.035
450.018
270.75
281.533
350.673
760.389
692.257
654.072
347.022
270.643
598.632
478.146
469.6
542.491
611.716
512.064
511.172
451.524
596.289
701.904
583.879
270.65
270.65
270.65
425.556
641.413
754.054
270.65
598.586
434.244
321.501
411.628
453.826
270.65
529.079
338.083
399.528
726.44
270.65
444.033
610.382
260.383
502.938
478.755
270.624
270.65
270.65
504.593
584.804
270.65
717.914
317.331
541.563
668.764
514.989
749.155
270.65
854.464
270.653
270.65
282.659
371.739
420.129
750.118
270.65
292.247
339.258
439.817
270.65
292.711
524.882
328.97
270.602
291.68
290.201
668.356
270.65
394.898
442.883
325.409
270.65
813.768
305.516
270.65
270.949
355.735
270.953
270.65
407.281
284.355
501.484
554.069
703.334
304.748
472.646
270.65
681.386
518.099
273.287
460.317
270.648
247.637
470.558
270.659
270.65
720.345
485.705
269.066
447.344
270.65
577.171
554.34
580.541
622.815
631.532
501.014
406.373
696.176
338.697
429.697
759.479
713.683
257.298
390.582
355.396
270.65
272.867
270.65
410.037
747.867
453.831
406.481
340.38
822.213
358.531
296.793
326.098
270.648
270.65
611.924
389.936
274.685
746.902
463.182
736.494
764.588
321.457
717.227
642.705
631.231
528.084
594.176
270.65
553.491
329.187
270.65
408.682
504.862
316.602
339.447
385.631
265.852
737.591
662.782
270.626
302.399
302.145
587.769
400.485
480.367
270.65
366.101
326.192
492.563
552.123
317.895
270.65
270.65
388.777
546.959
289.635
449.053
272.843
531.319
270.655
512.783
700.108
316.415
491.101
339.802
325.467
394.691
509.913
332.314
387.733
604.026
318.572
468.398
492.414
617.243
648.442
298.866
715.032
441.461
632.91
486.116
427.677
732.995
666.809
744.911
276.367
270.613
669.48
614.106
240.461
589.479
270.65
270.65
270.65
461.126
561.576
270.643
270.65
271.01
270.649
698.593
703.799
846.335
270.652
268.545
668.176
334.234
263.915
270.65
690.005
285.476
430.836
267.694
639.061
354.647
655.428
427.415
300.031
270.847
596.036
270.659
646.612
258.167
689.097
424.757
414.097
522.506
436.634
626.06
270.65
270.672
270.65
270.65
651.695
300.389
680.028
408.743
546.118
270.645
270.629
248.149
705.585
530.704
400.704
649.17
661.992
432.045
739.292
270.65
270.65
269.207
303.27
426.533
270.65
340.485
269.197
822.996
479.314
270.668
664.21
544.932
270.694
270.65
263.564
417.249
434.21
277.423
477.228
270.695
613.796
479.072
624.501
262.844
413.165
270.65
641.274
681.14
325.574
396.245
257.771
516.072
397.66
619.516
270.65
270.65
669.227
525.956
399.683
495.33
276.056
270.648
569.518
664.289
637.138
462.829
275.546
414.773
719.932
745.41
612.343
263.229
777.067
722.41
580.815
349.535
466.517
497.385
407.042
458.773
531.73
270.663
520.587
770.208
270.65
387.691
700.486
475.062
270.65
690.72
270.65
340.784
357.529
401.574
264.879
270.65
270.65
656.731
261.422
270.65
301.413
462.468
752.875
270.65
488.48
699.965
280.596
446.224
259.563
242.831
440.719
421.315
899.051
542.361
735.898
663.978
407.477
245.544
290.503
372.519
243.315
461.545
270.672
456.684
496.521
670.278
490.9
270.65
560.328
270.673
696.351
270.65
270.836
299.858
245.23
270.651
445.425
270.65
518.555
526.357
242.533
725.962
270.65
595.07
270.886
378.413
270.65
393.749
401.942
269.376
270.65
724.688
272.029
578.392
503.98
297.298
548.253
712.009
488.492
620.896
270.65
270.65
340.553
742.535
270.65
479.386
270.65
713.067
298.285
269.337
490.408
342.12
704.174
343.259
398.424
565.962
337.258
375.533
479.485
742.425
599.097
490.088
514.245
270.65
270.65
272.143
269.856
509.568
270.65
270.65
397.557
560.764
548.642
505.729
270.65
270.648
465.454
254.65
723.841
298.026
542.691
254.338
532.045
270.648
648.698
355.677
525.128
270.649
688.35
270.718
270.65
270.65
280.325
372.237
262.625
250.514
354.026
379.073
819.443
738.418
268.159
423.479
266.37
270.65
465.087
458.571
270.897
449.833
270.65
529.777
333.598
495.504
480.02
577.85
268.026
270.65
570.889
722.077
455.762
747.919
397.749
394.359
333.737
270.629
310.868
625.16
573.396
270.65
458.693
270.646
626.376
511.444
512.07
270.65
831.068
270.65
270.65
651.421
270.65
661.323
262.225
424.73
501.063
428.513
403.742
403.79
401.334
425.447
291.207
324.888
375.696
270.65
455.111
312.918
270.66
438.78
449.529
604.295
264.828
458.224
400.188
750.478
444.986
419.698
482.296
270.023
605.92
443.321
270.649
418
261.229
664.534
715.274
401.443
521.748
460.086
537.056
379.235
721.877
751.928
607.766
356.921
270.65
270.658
400.086
579.74
411.869
270.65
413.582
270.742
270.64
270.65
395.237
434.63
491.263
396.592
641.667
256.859
254.092
567.023
377.51
596.219
566.372
270.65
270.988
406.727
392.66
270.65
372.855
382.13
260.788
621.912
270.65
462.639
514.218
267.348
545.194
270.652
270.831
270.65
473.062
429.817
557.165
270.65
728.122
408.075
722.413
448.819
668.589
527.011
450.94
564.935
527.896
740.485
677.609
592.663
245.306
270.65
318.55
270.718
270.569
447.521
517.283
704.048
270.636
271.792
729.661
270.71
343.056
270.853
343.29
421.123
513.165
543.66
450.769
323.978
270.649
651.519
385.294
253.446
270.65
388.337
738.196
270.654
707.767
473.7
623.16
309.81
265.275
447.571
264.814
270.589
324.586
270.634
270.65
624.843
585.683
261.87
270.715
270.717
609.817
630.098
270.721
273.298
270.65
636.447
416.289
282.534
353.781
422.634
343.123
422.909
507.541
774.906
368.854
502.698
483.449
628.954
335.447
523.44
303.926
493.194
310.926
610.196
666.223
303.357
270.65
295.381
350.34
270.65
624.891
530.33
269.782
499.051
466.902
668.961
463.481
270.651
504.081
517.683
270.648
270.65
412.995
611.856
599.003
574.305
450.089
807.405
441.182
624.463
678.466
433.352
269.601
516.022
259.109
514.267
467.692
399.663
282.048
625.769
456.512
744.616
270.653
345.54
528.785
243.508
503.274
270.65
316.451
309.174
474.863
270.567
455.865
458.968
539.714
282.516
527.488
682.8
279.182
294.336
575.039
397.125
513.024
270.65
268.171
753.439
572.553
270.65
573.831
304.784
340.617
270.711
525.366
368.881
603.582
707.354
290.202
384.406
271.929
525.887
386.13
516.77
308.46
656.068
748.728
270.65
386.585
267.467
363.776
384.815
653.414
379.197
270.65
685.74
270.65
559.458
313.73
267.157
682.564
470.896
474.53
443.16
290.628
377.112
467.608
499.628
270.65
579.62
472.762
310.227
378.943
788.203
457.177
662.288
390.808
495.078
270.638
385.781
247.053
451.696
333.201
602.637
659.142
532.076
521.627
470.641
739.053
244.526
356.789
427.348
648.58
270.641
267.594
270.65
365.101
500.847
583.609
446.61
274.172
503.458
708.081
476.26
270.65
311.167
433.683
270.65
357.18
426.995
270.65
270.65
396.215
524.599
245.409
268.697
270.65
411.837
391.923
258.049
742.287
621.264
252.333
450.801
484.656
270.65
409.499
634.817
479.614
457.847
477.834
246.816
420.07
519.897
459.706
270.651
263.335
270.65
459.127
401.327
270.646
482.935
482.286
550.411
484.238
313.395
448.213
447.825
350.022
250.385
363.799
270.65
270.65
594.724
270.65
767.756
593.425
270.49
451.906
612.983
691.376
270.764
765.619
270.65
265.103
247.817
440.851
270.833
423.526
351.788
556.793
719.544
275.187
495.786
526.847
666.431
321.446
711.598
270.65
342.238
473.534
270.65
748.333
294.454
687.067
473.047
269.986
635.15
270.654
420.514
409.156
270.659
340.831
565.501
357.364
549.882
500.114
424.484
467.58
698.002
545.229
243.268
341.481
270.65
270.203
514.724
697.069
450.809
270.65
441.759
629.883
338.963
343.281
454.775
270.439
468.633
270.65
270.65
407.156
563.143
472.689
282.204
304.101
663.544
717.803
270.648
423.254
639.6
341.381
439.406
392.101
293.044
465.356
623.624
419.742
385.942
728.414
359.962
270.65
270.65
478.08
652.876
270.856
353.83
461.324
504.7
270.65
597.931
411.127
270.65
649.315
402.123
868.786
431.116
338.406
544.094
499.757
528.901
449.236
749.764
408.962
270.65
652.875
487.08
357.68
270.646
768.47
621.233
515.693
741.785
546.938
262.738
270.796
519.939
270.65
573.415
308.24
735.396
435.597
517.567
650.466
513.513
331.556
517.627
452.984
267.749
446.004
576.264
256.641
561.571
328.315
305.675
341.155
603.901
407.259
327.292
681.365
270.65
499.854
270.65
270.65
369.988
270.638
504.832
283.798
608.179
262.851
714.303
409.32
270.65
508.321
542.861
378.402
495.026
406.213
694.817
756.138
645.644
427.491
755.953
320.999
474.344
893.572
459.257
730.807
477.894
270.65
666.827
455.916
678.877
269.561
411.089
689.851
348.356
409.919
270.839
499.142
267.135
649.011
270.65
375.094
489.231
270.65
350.979
301.27
529.232
507.816
300.073
271.726
716.876
287.438
251.171
282.751
337.73
270.65
425.876
478.693
754.769
258.585
270.65
256.342
270.65
383.881
397.669
692.455
516.383
642.918
360.736
379.097
656.296
433.461
462.135
481.545
280.44
598.194
427.772
727.673
449.332
671.525
409.15
264.905
379.758
577.941
275.54
425.363
371.311
502.17
270.65
574.985
270.65
765.378
470.328
270.65
738.123
270.65
262.893
727.29
546.774
351.544
270.65
697.471
267.311
274.401
270.65
416.281
346.288
575.449
324.444
521.23
424.197
536.702
591.763
267.419
537.343
461.653
505.676
746.138
505.027
270.65
328.329
270.65
455.53
257.396
472.847
324.403
366.299
335.154
298.804
453.404
270.65
501.759
658.391
415.506
431.04
309.425
252.842
498.74
270.889
688.166
343.194
539.435
809.816
453.702
664.583
269.129
270.651
431.379
270.749
410.871
343.816
270.65
270.242
484.298
270.675
519.164
270.645
392.696
268.303
568.832
270.65
270.65
270.887
854.623
896.715
270.65
263.551
572.907
601.882
617.833
423.331
528.906
265.347
589.627
270.65
475.505
320.906
402.891
604.081
270.447
270.745
342.412
363.429
517.636
754.88
440.002
449.762
270.65
729.308
437.428
306.61
269.494
262.283
482.674
271.19
710.293
459.204
270.639
257.153
476.722
254.899
270.663
276.844
375.845
381.374
417.297
659.766
674.388
350.129
477.436
262.315
270.65
270.65
268.033
377.792
533.274
263.993
643.406
486.685
371.716
270.655
538.747
620.062
530.602
667.392
270.788
235.494
305.743
270.651
270.635
270.65
716.442
712.42
364.861
264.018
487.334
280.451
270.656
518.755
394.913
364.461
442.111
300.331
710.928
480.471
412.114
263.694
446.363
481.899
584.578
270.753
266.796
621.231
789.063
449.198
390.499
713.509
477.785
636.42
430.964
523.555
406.152
264.382
264.29
270.572
354.308
395.087
645.002
270.688
392.557
505.805
425.675
751.474
552.203
615.953
404.509
528.464
270.65
599.412
509.505
669.112
686.513
457.055
472.241
673.552
270.65
482.198
270.65
604.117
499.569
270.65
629.334
270.65
557.453
573.202
760.493
753.441
270.984
626.792
268.204
349.918
557.421
751.236
266.7
411.185
270.672
547.461
687.237
507.702
420.51
683.991
580.301
361.73
519.664
364.396
270.41
558.016
438.762
398.802
245.004
420.828
270.65
273.193
270.65
414.505
734.122
270.65
270.65
270.643
270.626
567.666
538.854
615.727
562.667
270.65
302.324
750.993
358.499
270.65
268.613
586.53
310.465
337.571
356.753
670.082
702.108
311.528
739.221
456.077
700.045
270.658
258.562
270.64
718.092
493.92
642.121
527.613
381.239
432.535
617.93
528.853
566.044
491.513
751.413
502.462
483.48
662.426
547.913
258.453
505.747
256.003
887.503
559.438
740.361
253.249
475.83
664.933
744.35
270.65
708.225
517.802
270.65
383.459
700.286
270.752
270.65
425.314
250.17
397.19
527.538
270.65
461.615
438.664
439.293
498.463
275.713
270.65
315.431
504.82
411.446
666.391
467.628
519.665
487.181
344.251
563.212
390.673
260.184
379.451
512.063
270.822
719.779
470.285
364.474
428.328
617.294
720.125
270.77
474.152
477.961
666.454
752.716
502.595
687.401
270.638
724.839
640.623
244.871
534.374
580.716
263.317
546.174
842.169
270.65
442.796
590.865
702.653
447.238
284.461
270.65
416.33
270.705
630.481
270.65
428.09
268.356
270.65
745.987
534.897
675.79
628.643
746.679
413.857
545.009
270.65
248.006
661.072
618.401
270.602
555.618
285.629
598.09
350.152
736.134
367.981
270.622
752.016
718.21
321.464
270.65
476.58
574.167
622.898
685.905
270.65
596.762
265.729
333.932
270.65
881.302
745.27
507.521
324
422.702
643.879
311.871
399.928
737.633
486.123
447.361
339.968
266.028
345.716
373.712
380.879
259.562
346.738
420.162
267.62
265.812
656.406
265.035
341.463
415.113
561.028
270.65
532.521
252.21
316.743
254.684
656.859
408.421
241.56
398.266
385.73
380.852
469.516
529.357
718.472
497.325
431.795
467.394
270.641
708.033
270.65
277.537
361.932
451.768
401.265
313.543
596.846
364.247
776.946
673.502
277.286
254.024
452.666
728.511
270.65
442.374
270.65
416.178
375.097
447.241
704.059
366.403
655.118
521.255
269.246
431.946
361.051
484.268
270.65
491.213
559.368
633.187
322.496
300.376
610.969
502.808
270.63
768.608
539.745
270.642
620.55
588.451
514.775
270.755
377
571.351
270.65
452.591
552.636
736.707
260.623
378.435
458.002
514.833
752.436
435.341
370.044
469.433
667.793
653.093
624.42
270.65
632.519
442.291
270.65
487.273
401.646
515.109
454.5
465.558
614.655
441.745
565.498
270.651
619.09
682.577
270.65
431.535
280.761
688.72
301.01
271.598
741.483
574.554
238.548
353.776
381.675
547.948
585.23
582.768
270.928
270.65
418.725
304.32
416.671
406.348
360.545
557.606
714.903
404.126
302.536
531.521
707.033
332.808
435.936
743.528
265.638
579.892
270.645
325.591
743.086
406.466
299.701
604.807
483.151
485.121
263.628
270.679
681.971
270.65
449.86
679.43
694.054
268.215
786.361
382.179
420.428
560.02
672.698
671.823
449.127
564.671
270.767
718.755
722.783
785.154
270.588
551.716
270.65
419.206
270.651
270.65
270.65
270.65
290.625
681.939
267.365
480.037
275.455
457.832
399.704
386.264
287.799
396.915
275.979
386.367
486.17
696.451
534.947
268.398
372.088
475.772
479.082
270.65
714.014
546.976
271.4
587.713
339.695
509.145
360.054
250.318
266.715
389.545
678.994
336.71
436.763
560.863
246.058
250.449
346.288
383.879
496.107
816.111
743.891
594.435
419.103
702.401
476.512
270.808
743.009
270.65
599.448
503.465
269.893
270.667
453.285
740.772
350.751
598.697
375.663
669.262
270.65
735.52
676.266
513.172
635.916
632.671
270.101
270.65
270.65
613.263
411.276
270.649
415.451
677.482
502.544
260.464
451.492
300.536
495.559
270.746
250.024
316.48
655.002
752.668
442.045
276.056
502.993
288.303
748.602
353.173
270.65
663.793
674.221
436.447
691.65
492.199
458.56
457.614
371.297
427.54
614.8
244.36
537.351
507.092
285.953
347.598
489.921
749.961
415.294
409.317
722.135
730.575
724.85
270.654
568.722
270.692
509.414
270.65
270.648
628.121
329.145
738.157
270.665
419.392
575.789
762.477
563.136
243.568
629.367
421.951
533.403
534.492
251.656
270.65
769.051
421.98
266.358
270.649
457.635
533.122
267.296
582.283
495.507
262.107
270.65
268.442
240.102
571.368
261.154
270.65
577.255
480.902
346.109
270.65
691.708
503.777
300.353
327.701
363.236
398.66
275.679
267.78
270.65
270.65
756.954
270.65
336.315
746.426
270.852
540.37
363.947
602.927
371.622
746.184
451.283
383.581
635.952
675.073
835.306
316.81
448.932
409.548
262.662
334.411
659.945
688.434
618.919
723.34
559.822
479.857
631.032
634.224
594.281
609.82
693.815
440.353
848.761
270.885
608.097
457.643
253.56
620.232
735.763
614.961
377.265
424.141
694.967
721.547
600.026
258.022
574.443
521.254
687.362
553.886
270.65
469.3
651.826
534.38
588.944
676.73
559.989
496.163
550.914
305.347
338.615
270.65
726.16
409.896
340.646
266.551
661.196
362.416
382.874
271.085
586.638
704.485
317.586
338.48
328.03
654.873
655.32
276.666
577.265
507.839
254.602
531.651
353.022
683.077
413.683
415.813
270.65
546.574
404.619
304.109
381.447
650.647
322.065
449.351
564.653
476.19
415.975
370.971
255.079
496.509
497.468
398.292
269.221
744.349
709.142
395.458
307.141
268.413
417.997
624.227
357.039
270.727
270.647
338.678
738.581
685.923
684.307
269.696
546.205
444.17
696.042
387.081
285.535
531.164
734.223
448.665
355.902
537.136
368.357
406.408
574.482
270.65
503.459
458.591
458.893
389.47
556.928
270.65
270.65
311.77
487.254
683.63
584.36
563.99
270.65
567.291
586.422
602.418
265.409
263.455
434.506
400.437
271.039
587.304
382.133
268.95
490.384
427.42
740.762
398.983
266.696
317.049
653.45
270.646
476.123
270.647
407.161
708.327
382.676
608.395
475.999
551.159
278.89
719.312
451.8
485.35
270.65
593.715
473.31
265.859
247.361
261.138
758.463
452.426
763.413
453.304
516.353
576.804
670.237
670.297
269.454
552.283
546.452
321.359
705.083
718.522
423.197
294.982
742.821
419.555
658.463
394.991
426.802
475.747
890.324
258.772
450.27
393.932
469.403
324.282
360.24
577.861
701.39
680.816
521.336
270.429
599.61
679.658
464.765
727.407
573.874
647.467
503.009
370.05
422.27
409.744
548.077
564.647
687.549
270.648
270.65
692.948
418.253
270.65
363.502
456.951
437.841
599.754
763.047
433.077
233.995
716.313
382.72
270.633
412.196
498.014
458.26
330.23
472.892
454.847
618.153
486.508
360.567
453.085
714.528
578.223
472.472
270.658
554.886
270.65
427.05
438.005
707.145
279.947
357.964
544.918
669.926
650.008
270.65
306.773
425.21
477.091
450.578
731.086
524.297
390.138
410.743
449.725
477.285
613.683
682.163
834.32
464.85
374.31
283.621
270.653
408.973
620.862
457.282
602.327
553.633
750.45
556.353
270.65
482.209
259.312
563.717
571.77
266.437
405.033
352.419
505.587
417.599
483.383
613.427
260.369
328.461
274.85
326.945
270.65
380.931
589.913
357.509
445.859
270.65
251.644
593.194
641.645
646.766
294.078
477.882
537.391
485.058
696.25
706.407
506.862
449.27
730.373
290.749
382.459
716.267
607.863
298.904
270.296
787.74
329.007
594.761
270.65
599.951
562.442
620.52
669.161
505.474
419.431
506.907
685.287
270.65
316.483
352.575
275.677
270.642
270.65
459.384
297.172
270.65
389.534
518.553
252.194
571.771
397.431
266.592
760.949
662.542
660.858
477.95
270.725
715.766
747.238
340.519
592.184
273.199
271.625
271.849
616.709
435.141
266.573
270.787
729.745
376.141
410.367
696.737
600.13
673.012
252.56
533.277
270.836
430.731
271.247
270.65
241.4
574.162
552.752
508.238
554.548
627.477
594.693
403.819
280.625
270.65
461.813
442.832
271.692
575.942
367.574
392.328
421.829
375.088
318.095
549.919
270.65
603.327
273.855
317.238
608.906
529.518
541.934
534.605
754.011
492.4
390.809
580.087
395.329
270.12
379.914
603.035
668.822
335.21
696.14
270.829
569.63
264.602
407.011
293.32
414.794
376.368
232.07
697.218
750.873
270.65
675.941
403.312
395.599
472.479
722.799
656.359
327.431
432.409
305.674
735.663
270.65
270.65
522.705
619.035
393.771
424.922
464.671
711.882
514.943
685.99
454.491
720.252
452.976
732.301
454.51
332.065
241.613
703.855
403.212
314.231
262.23
319.022
677.289
337.05
318.933
281.861
664.868
415.198
752.524
711.113
268.179
367.492
301.657
487.824
270.641
586.412
302.848
653.162
703.2
340.416
556.413
596.268
505.788
364.565
558.93
562.361
606.65
320.216
323.518
277.93
410.134
266.384
260.251
344.741
270.65
577.896
441.301
549.158
270.65
566.843
478.859
532.972
571.173
732.82
610.941
570.167
584.331
744.785
627.297
401.687
657.016
250.728
266.353
460.655
270.65
270.895
445.793
470.873
502.951
616.225
270.65
430.188
267.196
582.378
379.941
522.453
704.716
292.059
271.132
348.758
298.166
355.87
647.105
486.136
561.1
607.658
346.201
599.873
304.585
305.917
658.379
375.281
594.866
643.76
302.44
426.363
347.011
386.618
377.009
467.609
319.748
708.6
700.59
269.315
270.65
469.845
268.548
478.305
266.556
279.14
472.713
382.463
265.155
514.531
671.303
529.924
725.354
695.995
285.3
383.347
339.668
456.085
574.747
552.304
270.65
463.651
618.209
421.697
535.998
268.79
491.882
378.974
433.758
467.936
544.538
270.649
479.172
270.65
474.231
405.142
271.112
299.984
671.949
587.683
766.576
293.683
432.475
455.794
376.133
584.663
308.182
270.65
351.39
504.081
388.57
627.38
610.869
654.102
596.14
625.586
305.093
303.072
325.305
268.887
389.414
270.65
352.748
270.65
428.92
499.274
270.65
236.099
270.648
676.379
720.517
269.596
471.871
270.558
270.439
448.716
254.961
483.296
417.289
286.553
513.383
532.717
501.125
609.782
612.175
388.772
320.269
576.121
269.373
467.728
735.147
556.879
609.515
555.429
587.536
644.237
465.881
246.463
635.864
445.156
486.025
601.369
652.991
320.892
414.556
442.897
270.649
524.935
279.591
587.628
413.886
694.308
270.433
295.593
270.65
602.867
270.65
419.899
410.003
524.035
742.518
587.493
675.454
485.065
244.22
446.752
319.954
577.819
361.482
270.462
264.704
371.26
510.083
270.65
458.22
597.401
486.429
445.358
270.65
428.713
587.454
383.121
644.451
540.9
649.145
660.112
701.812
759.971
268.582
274.066
310.754
291.945
259.134
561.748
682.496
455.945
630.968
490.753
706.182
243.241
442.489
533.472
382.145
270.653
611.028
673.665
749.836
453.38
388.437
270.65
314.879
270.65
480.957
502.072
313.164
681.985
620.606
340.963
302.45
748.332
352.442
501.309
291.468
434.457
654.532
482.255
687.219
684.876
357.054
486.297
469.014
325.736
516.49
460.751
393.351
681.141
264.557
594.343
270.65
659.241
509.912
523.628
512.655
270.663
431.33
354.465
338.243
523.527
506.732
403.656
465.217
424.712
508.351
332.611
651.259
435.869
343.064
435.722
394.392
371.334
495.448
669.911
641.437
375.685
544.853
331.541
550.397
578.971
717.735
428.372
592.212
402.797
328.876
493.608
356.784
271.473
719.657
358.536
413.669
499.583
429.401
400.471
592.625
515.535
268.965
431.8
318.189
736.813
331.887
575.206
461.316
379.841
535.681
728.666
638.185
609.873
459.897
576.377
276.637
271.464
475.555
650.041
565.375
649.351
448.401
338.971
270.65
471.419
270.991
561.957
644.764
719.065
419.397
680.015
270.65
264.334
669.99
425.303
546.168
586.064
582.07
587.569
549.382
773.75
721.142
285.859
303.305
290.043
567.928
364.659
265.238
644.59
707.413
742.988
500.649
582.25
628.547
677.058
587.023
579.91
270.65
422.529
754.4
359.233
319.679
252.882
270.65
248.243
577.71
265.63
449.456
416.054
270.65
270.65
564.5
557.306
274.825
492.958
269.007
548.071
470.585
270.65
359.666
299.094
270.649
416.541
397.467
560.759
730.777
499.006
644.45
497.968
472.459
481.353
451.602
724.582
491.242
445.465
485.176
562.822
524.181
392.552
455.972
358.142
458.154
418.839
377.724
494.937
642.191
448.633
349.994
369.875
854.615
398.931
591.973
514.382
332.142
270.65
504.118
448.647
534.185
437.507
399.679
267.791
251.075
433.168
253.807
465.889
754.567
619.078
379.551
620.148
430.611
451.911
590.51
629.554
377.975
416.867
475.256
488.491
749.335
524.716
509.184
532.886
489.989
691.266
629.903
264.65
270.65
595.519
388.874
331.634
270.65
432.336
643.098
495.02
517.669
589.499
343.372
419.199
456.524
369.737
375.049
387.682
500.952
348.187
454.757
270.661
660.284
456.58
527.83
470.075
744.932
442.46
463.88
411.95
273.749
540.584
400.948
582.154
541.735
500.368
497.336
458.894
513.366
502.56
413.388
247.491
502.166
421.658
430.915
482.337