/*--------------------------------*- C++ -*----------------------------------*\
| =========                 |                                                 |
| \\      /  F ield         | OpenFOAM: The Open Source CFD Toolbox           |
|  \\    /   O peration     | Version:  2406                                  |
|   \\  /    A nd           | Website:  www.openfoam.com                      |
|    \\/     M anipulation  |                                                 |
\*---------------------------------------------------------------------------*/
FoamFile
{
    version     2.0;
    format      ascii;
    arch        "LSB;label=32;scalar=64";
    class       volVectorField;
    location    "0.001000059722";
    object      U;
}
// * * * * * * * * * * * * * * * * * * * * * * * * * * * * * * * * * * * * * //

dimensions      [0 1 -1 0 0 0 0];

internalField   nonuniform List<vector> 
17141
(
(989.764 0.273313 0)
(988.401 2.93103 0)
(990.569 0.419573 0)
(459.395 -317.344 0)
(989.992 -0.00103792 0)
(538.169 -340.555 0)
(555.062 -342.874 0)
(794.264 135.749 0)
(244.248 93.578 0)
(446.731 -308.517 0)
(990 6.31293e-12 0)
(989.984 0.0630235 0)
(382.088 -291.886 0)
(989.751 0.22434 0)
(1028.55 -287.118 0)
(526.217 335.448 0)
(990 -3.33719e-05 0)
(523.4 333.451 0)
(370.112 -273.771 0)
(940.461 -19.3595 0)
(763.151 316.663 0)
(990 3.60096e-05 0)
(925.254 163.347 0)
(1013.63 364.11 0)
(990.124 2.07458 0)
(990 2.24109e-11 0)
(542.371 167.937 0)
(990 -0.000177844 0)
(810.93 -205.182 0)
(933.451 95.1641 0)
(397.436 -287.12 0)
(989.822 -0.212084 0)
(823.716 216.098 0)
(430.485 -303.276 0)
(712.22 215.61 0)
(951.207 63.7961 0)
(989.474 0.938693 0)
(963.834 59.4989 0)
(990 -1.0657e-08 0)
(530.515 350.777 0)
(990.258 195.618 0)
(966.847 50.2944 0)
(580.702 311.876 0)
(71.0386 -51.5697 0)
(821.212 187.977 0)
(538.636 337.751 0)
(700.415 296.933 0)
(955.847 82.2961 0)
(977.927 -16.3241 0)
(739.069 -293.758 0)
(728.837 -333.196 0)
(990.065 0.0486211 0)
(940.378 145.596 0)
(263.875 160.488 0)
(978.514 -40.7443 0)
(843.963 -237.438 0)
(641.218 -352.403 0)
(693.191 337.575 0)
(709.082 289.984 0)
(408.507 -295.71 0)
(906.102 490.888 0)
(934.192 -134.71 0)
(873.56 -20.2999 0)
(990.018 -0.0377687 0)
(221.183 78.4631 0)
(629.09 -361.435 0)
(729.478 332.076 0)
(528.627 -341.031 0)
(729.373 320.587 0)
(1034.16 39.1804 0)
(1002.65 386.889 0)
(270.655 -233.976 0)
(514.9 343.522 0)
(995.25 -11.8895 0)
(990 5.62622e-12 0)
(989.693 -0.0161227 0)
(990 -1.50798e-11 0)
(991.396 213.027 0)
(302.635 238.909 0)
(989.83 -0.490377 0)
(990.076 0.0574588 0)
(235.951 71.6246 0)
(609.083 -350.377 0)
(990.004 0.00292776 0)
(436.15 -260.495 0)
(384.758 -302.181 0)
(1030.97 20.6415 0)
(939.611 118.438 0)
(776.525 -255.641 0)
(990 1.15785e-11 0)
(990 -1.08563e-07 0)
(501.379 339.754 0)
(991.253 -309.417 0)
(1017.7 -201.98 0)
(688.373 -346.196 0)
(989.149 -0.635816 0)
(649.156 349.697 0)
(732.469 332.373 0)
(925.813 163.095 0)
(596.031 -350.898 0)
(989.975 0.0233121 0)
(598.789 341.08 0)
(990 8.90019e-12 0)
(990.001 -0.0018132 0)
(952.9 -75.2245 0)
(81.4382 -79.0568 0)
(991.382 2.0075 0)
(635.516 302.253 0)
(990 -2.91996e-12 0)
(990 3.53621e-12 0)
(809.414 -118.521 0)
(837.935 -243.614 0)
(407.576 -294.444 0)
(326.701 231.268 0)
(720.526 342.112 0)
(994.926 230.322 0)
(700.406 318.441 0)
(561.261 274.873 0)
(283.713 168.305 0)
(313.545 -229.545 0)
(1008.74 27.9762 0)
(990 -0.000823357 0)
(678.194 354.856 0)
(693.207 -328.307 0)
(835.632 -257.898 0)
(902.858 -186.204 0)
(404.127 -294.219 0)
(1022.66 -183.929 0)
(989.999 -0.00336301 0)
(697.401 -336.015 0)
(213.181 71.6133 0)
(990 1.67756e-06 0)
(985.868 -201.675 0)
(990 1.08365e-12 0)
(706.164 3.694 0)
(839.084 468.279 0)
(775.778 158.307 0)
(312.872 -233.034 0)
(600.729 350.819 0)
(758.37 175.774 0)
(938.501 146.274 0)
(777.122 -299.481 0)
(990.552 3.03123 0)
(279.68 191.045 0)
(289.198 -303.218 0)
(990.033 1.42324 0)
(158.256 236.063 0)
(744.21 -323.688 0)
(817.934 -196.19 0)
(990 -7.68572e-12 0)
(1019.96 -216.822 0)
(834.746 -255.292 0)
(277.975 -232.367 0)
(1022.14 390.006 0)
(585.299 -196.828 0)
(991.008 -0.0599093 0)
(991.142 -6.98361 0)
(1023 -189.303 0)
(990.347 -1.27876 0)
(1000.9 13.5233 0)
(989.87 0.214088 0)
(586.478 -345.345 0)
(550.201 -349.713 0)
(955.638 -119.121 0)
(517.955 -335.141 0)
(1008.54 22.952 0)
(713.294 216.286 0)
(904.895 171.736 0)
(990 1.3335e-11 0)
(987.892 6.49044 0)
(990.304 1.02118 0)
(990.198 -0.2889 0)
(759.61 327.014 0)
(990.406 -0.163032 0)
(184.011 258.029 0)
(1030.49 359.336 0)
(954.67 174.824 0)
(400.405 -305.608 0)
(671.28 -355.297 0)
(988.625 -345.899 0)
(1010.83 9.25642 0)
(845.55 217.825 0)
(527.504 345.969 0)
(1015.51 38.6029 0)
(405.257 -302.556 0)
(860.018 79.4284 0)
(990.006 -0.0145177 0)
(985.539 31.8215 0)
(478.663 313.241 0)
(872.305 224.913 0)
(769.747 323.526 0)
(648.567 -351.127 0)
(708.361 342.691 0)
(892.654 -145.499 0)
(300.267 -308.09 0)
(264.793 -174.507 0)
(474.108 -300.956 0)
(988.163 -65.2158 0)
(252.778 117.866 0)
(689.219 3.54406 0)
(290.339 -173.847 0)
(942.863 26.2749 0)
(629.874 317.011 0)
(909.588 166.892 0)
(250.485 91.7766 0)
(881.183 50.5389 0)
(852.946 93.337 0)
(939.831 -58.7685 0)
(255.953 138.015 0)
(767.16 -322.404 0)
(1016.61 372.725 0)
(689.887 -326.652 0)
(706.848 -352.823 0)
(226.184 115.672 0)
(742.477 184.172 0)
(640.41 -342.283 0)
(1032.06 357.046 0)
(642.843 352.813 0)
(686.183 -317.125 0)
(992.2 218.523 0)
(989.999 -0.000239596 0)
(984.364 -0.366599 0)
(990.001 0.00648994 0)
(497.482 -293.853 0)
(868.38 -220.751 0)
(507.12 326.698 0)
(763.045 -74.5544 0)
(990.193 -4.61029 0)
(1031.15 11.1317 0)
(592.976 -345.909 0)
(591.85 -297.453 0)
(510.114 339.407 0)
(325.922 229.779 0)
(989.978 -326.088 0)
(943.114 115.782 0)
(987.444 184.187 0)
(422.233 -303.199 0)
(951.089 59.4637 0)
(700.69 -281.141 0)
(753.437 -43.6453 0)
(1013.44 102.101 0)
(429.89 304.017 0)
(169.742 256.925 0)
(559.55 333.673 0)
(827.474 -187.687 0)
(426.98 263.68 0)
(254.94 -121.741 0)
(255.813 129.476 0)
(943.596 57.2552 0)
(990.524 0.302159 0)
(705.151 345.011 0)
(323.147 -219.795 0)
(797.742 -117.361 0)
(488.103 -331.474 0)
(559.242 -355.014 0)
(233.732 -53.5956 0)
(809.01 290.103 0)
(990 -6.89928e-10 0)
(636.116 352.658 0)
(990 0.000707073 0)
(998.541 -9.38538 0)
(261.945 -153.619 0)
(988.71 -1.68551 0)
(966.609 46.0028 0)
(228.774 -281.508 0)
(658.307 348.338 0)
(581.358 -352.172 0)
(875.319 19.9773 0)
(301.072 240.552 0)
(244.527 281.1 0)
(990.001 0.00135401 0)
(674.468 -329.775 0)
(613.782 355.745 0)
(990 -6.68993e-12 0)
(990.007 0.00989239 0)
(587.309 337.224 0)
(-88.289 11.7011 0)
(872.305 73.5323 0)
(1024.78 -281.984 0)
(482.576 323.176 0)
(637.37 -255.155 0)
(621.835 -280.925 0)
(789.56 -307.196 0)
(317.305 -219.476 0)
(961.225 200.693 0)
(340.958 251.539 0)
(750.356 -242.015 0)
(990.021 0.00346524 0)
(120.744 197.939 0)
(611.824 329.768 0)
(583.593 -318.463 0)
(997.697 -8.45957 0)
(951.417 -123.784 0)
(120.032 44.9041 0)
(970.025 34.9557 0)
(750.459 -305.014 0)
(1003.16 392.961 0)
(428.543 -297.849 0)
(702.094 319.946 0)
(947.02 -9.9332 0)
(990 7.2035e-12 0)
(632.436 -354.707 0)
(541.041 305.976 0)
(700.601 351.736 0)
(990.017 -0.00267259 0)
(437.593 319.578 0)
(439.102 197.816 0)
(936.848 3.29204 0)
(992.195 -5.15969 0)
(990.001 0.00118552 0)
(517.186 336.254 0)
(375.323 -280.29 0)
(296.263 -230.198 0)
(983.127 -414.668 0)
(984.456 -33.2605 0)
(666.735 -248.616 0)
(610.471 313.378 0)
(986.287 -26.4272 0)
(522.608 331.559 0)
(503.785 294.953 0)
(989.333 425.832 0)
(564.9 -341.172 0)
(232.336 99.1322 0)
(1021.2 -188.567 0)
(530.668 336.179 0)
(492.351 325.275 0)
(868.242 -220.295 0)
(949.017 -10.6145 0)
(972.043 457.237 0)
(990 -1.01006e-11 0)
(239.15 -290.968 0)
(990.087 0.463105 0)
(724.727 208.513 0)
(485.887 313.071 0)
(990.009 0.0158887 0)
(976.784 25.9705 0)
(1004.3 -21.9296 0)
(1021.95 -193.473 0)
(212.07 -41.8884 0)
(1024.71 -400.439 0)
(808.766 291.797 0)
(304.653 233.503 0)
(223.745 -272.966 0)
(989.914 -0.41337 0)
(990.01 0.0306378 0)
(628.725 -344.876 0)
(817.249 192.705 0)
(990 2.82634e-07 0)
(210.411 201.361 0)
(989.964 -0.0485057 0)
(989.989 -0.0036094 0)
(972.877 458.96 0)
(828.891 -254.517 0)
(490.616 311.831 0)
(219.776 -13.3281 0)
(630.175 351.206 0)
(877.906 92.139 0)
(989.494 0.196127 0)
(990 0.000840125 0)
(637.208 -254.657 0)
(989.995 -0.280407 0)
(988.951 0.90885 0)
(989.866 0.719875 0)
(991.799 7.16097 0)
(957.631 98.6348 0)
(989.604 -0.0688353 0)
(1051.57 -17.5428 0)
(245.882 33.4869 0)
(901.964 -186.787 0)
(659.031 -240.37 0)
(996.998 12.396 0)
(990 -8.94149e-12 0)
(402.506 -292.065 0)
(725.324 208.887 0)
(618.609 -277.708 0)
(1022.22 -222.436 0)
(808.032 275.933 0)
(418.432 -305.675 0)
(886.377 -373.491 0)
(777.656 -139.815 0)
(989.959 -0.164386 0)
(456.028 317.224 0)
(989.784 -0.0105146 0)
(861.329 -209.67 0)
(768.772 317.832 0)
(903.228 4.6021 0)
(970.312 -109.351 0)
(713.854 -330.153 0)
(989.999 -0.000249371 0)
(808.109 276.11 0)
(962.495 66.3284 0)
(549.184 301.127 0)
(877.21 -16.4442 0)
(736.127 -337.984 0)
(990 -8.04173e-13 0)
(996.311 344.347 0)
(238.068 -56.5977 0)
(351.983 -285.045 0)
(547.017 24.3926 0)
(990 -5.00627e-05 0)
(989.998 -0.00125977 0)
(858.018 214.328 0)
(1027.83 -163.23 0)
(640.667 323.919 0)
(996.743 226.751 0)
(990 -7.8606e-12 0)
(654.934 -344.213 0)
(990.225 0.770097 0)
(990 2.06967e-12 0)
(989.957 -0.0726734 0)
(454.696 315.768 0)
(381.583 -280.872 0)
(548.076 298.363 0)
(719.216 -335.359 0)
(928.62 -121.034 0)
(688.932 338.096 0)
(948.636 146.33 0)
(657.83 -241.412 0)
(834.004 168.581 0)
(501.343 310.103 0)
(292.329 285.534 0)
(990.102 -0.0564972 0)
(996.099 8.03513 0)
(580.558 -348.099 0)
(989.715 -0.104236 0)
(286.151 173.478 0)
(990 -2.49773e-05 0)
(990 -1.30342e-11 0)
(362.985 -288.757 0)
(372.73 123.873 0)
(207.079 76.9956 0)
(580.012 -341.958 0)
(981.537 6.64898 0)
(989.783 -0.538985 0)
(436.063 -308.632 0)
(990.001 -0.0001097 0)
(861.537 -191.529 0)
(945.955 -12.0682 0)
(1013.85 392.785 0)
(666.72 204.417 0)
(990 6.08336e-06 0)
(989.145 -1.21959 0)
(1033.97 34.0746 0)
(989.903 -0.217151 0)
(953.084 -37.0394 0)
(766.359 164.044 0)
(1046.9 -71.664 0)
(497.993 -321.089 0)
(534.156 337.871 0)
(893.73 39.467 0)
(1073.48 -55.2942 0)
(480.935 101.935 0)
(717.747 329.445 0)
(327.639 233.513 0)
(813.032 -116.624 0)
(727.794 317.693 0)
(1002.24 21.123 0)
(771.948 -323.294 0)
(989.091 1.19676 0)
(1035.05 312.51 0)
(906.636 -49.9739 0)
(943.702 2.53209 0)
(905.803 118.474 0)
(902.243 2.70682 0)
(989.495 427.35 0)
(134.712 -217.598 0)
(992.592 3.90081 0)
(990.001 9.63579e-05 0)
(673.603 340.076 0)
(954.434 -47.5424 0)
(377.287 -279.603 0)
(845.998 -229.941 0)
(986.892 -41.2888 0)
(992.787 400.609 0)
(339.329 249.622 0)
(990 -1.04218e-06 0)
(990 0.00172367 0)
(237.744 -108.694 0)
(480.374 327.726 0)
(942.823 26.7063 0)
(862.977 209.853 0)
(717.266 318.542 0)
(485.123 315.747 0)
(990 -1.21808e-11 0)
(925.872 64.0379 0)
(296.244 -248.61 0)
(949.973 77.5192 0)
(990.044 0.0501328 0)
(989.964 -0.0449901 0)
(886.81 -305.326 0)
(990.471 0.396904 0)
(1042.6 339.548 0)
(992.829 426.5 0)
(990.004 0.00206198 0)
(828.614 264.876 0)
(946.126 122.357 0)
(990 5.64843e-09 0)
(613.286 -268.042 0)
(554.426 -286.543 0)
(567.147 291.273 0)
(947.031 8.75872 0)
(723.917 343.881 0)
(1023.36 -45.8074 0)
(248.974 273.091 0)
(991.291 -3.43553 0)
(852.516 -221.475 0)
(877.882 166.496 0)
(990 -1.45988e-12 0)
(403.538 -323.385 0)
(599.291 291.101 0)
(741.574 331.102 0)
(440.456 -320.445 0)
(942.997 -187.668 0)
(433.578 302.843 0)
(993.077 11.5665 0)
(499.298 342.05 0)
(215.562 211.413 0)
(984.237 146.202 0)
(868.742 -196.706 0)
(989.824 -0.24992 0)
(1010.36 260.444 0)
(995.165 6.8035 0)
(990 9.69638e-06 0)
(792.592 -310.846 0)
(997.242 11.7903 0)
(989.94 -0.03113 0)
(987.399 -37.9962 0)
(1018.27 -21.2242 0)
(910.284 119.552 0)
(1019.35 -25.407 0)
(521.934 290.34 0)
(593.857 295.432 0)
(989.994 0.00573993 0)
(764.018 211.198 0)
(444.12 -301.218 0)
(990 2.28798e-11 0)
(1006.61 29.2709 0)
(535.839 -301.437 0)
(990 1.75048e-08 0)
(1024.21 -237.389 0)
(795.582 225.998 0)
(625.03 249.63 0)
(993.412 -7.31624 0)
(606.218 361.055 0)
(902.899 183.182 0)
(990.139 -0.33172 0)
(617.414 -315.065 0)
(949.058 -15.2995 0)
(990 -2.11723e-12 0)
(804.136 118.714 0)
(990.014 0.00607874 0)
(236.064 -55.9345 0)
(516.227 -331.986 0)
(910.607 149.446 0)
(990 3.84887e-12 0)
(580.658 339.803 0)
(230.267 -67.2463 0)
(663.514 -345.071 0)
(983.692 -20.9222 0)
(568.219 -349.307 0)
(534.822 10.2932 0)
(1032.02 -370.597 0)
(989.775 -0.168988 0)
(796.076 -137.315 0)
(810.514 136 0)
(990.104 -0.0168043 0)
(990 -1.31531e-11 0)
(745.686 341.619 0)
(452.533 -317.898 0)
(990.07 -0.362624 0)
(1018.05 13.97 0)
(236.209 -295.643 0)
(706.889 304.788 0)
(1025.49 169.522 0)
(984.842 -13.2795 0)
(709.933 -339.53 0)
(736.601 -259.903 0)
(633.642 322.343 0)
(63.5374 -3.04101 0)
(1030.71 -298.553 0)
(593.593 -351.274 0)
(280.133 203.786 0)
(760.38 -327.551 0)
(944.571 -11.3681 0)
(957.16 -447.468 0)
(768.975 -232.814 0)
(295.412 -308.678 0)
(988.878 -0.529462 0)
(731.04 193.218 0)
(990 -1.26568e-11 0)
(808.581 -286.389 0)
(630.179 351.536 0)
(157.517 -120.76 0)
(561.102 -285.805 0)
(494.455 307.832 0)
(142.852 223.042 0)
(898.876 -31.7221 0)
(799.936 217.057 0)
(989.839 2.01322 0)
(756.141 171.363 0)
(371.474 263.559 0)
(636.485 307.786 0)
(990 -4.04943e-05 0)
(990 -2.38608e-12 0)
(267.431 -170.425 0)
(990 -2.6658e-06 0)
(990.018 -0.00014245 0)
(989.997 -0.000284903 0)
(698.007 124.015 0)
(231.683 -272.506 0)
(417.282 -296.438 0)
(408.337 -288.721 0)
(575.079 -306.539 0)
(990 3.16544e-05 0)
(873.098 -143.121 0)
(934.579 -18.5995 0)
(991.02 1.35722 0)
(457.356 -314.664 0)
(1034.85 263.789 0)
(677.815 318.5 0)
(1013.31 -43.6358 0)
(680.085 -225.86 0)
(1026.56 179.089 0)
(990 5.17061e-13 0)
(761.641 -129.366 0)
(931.478 -89.2642 0)
(323.515 229.563 0)
(286.827 202.771 0)
(640.107 350.143 0)
(587.643 -296.378 0)
(997.971 293.61 0)
(370.294 -288.63 0)
(990 -7.27332e-08 0)
(851.565 -242.58 0)
(990 1.38883e-11 0)
(687.008 -205.31 0)
(990 3.21235e-11 0)
(990.803 -1.10484 0)
(990 1.05032e-11 0)
(626.438 -361.856 0)
(639.851 -352.339 0)
(990 -6.37563e-13 0)
(989.441 -0.998289 0)
(535.06 -210.582 0)
(988.849 1.19406 0)
(989.999 -0.000640412 0)
(747.137 124.517 0)
(304.035 -226.947 0)
(956.623 57.3622 0)
(227.807 -69.7321 0)
(990 -1.21649e-11 0)
(990.258 -1.21634 0)
(980.493 41.0756 0)
(544.327 307.017 0)
(692.952 349.055 0)
(657.995 -343.516 0)
(663.193 -295.986 0)
(990 -1.03076e-06 0)
(442.03 -318.418 0)
(990 -5.32646e-05 0)
(683.052 -224.329 0)
(989.946 0.00511979 0)
(119.324 203.334 0)
(532.505 339.566 0)
(990 4.58715e-06 0)
(619.741 -264.81 0)
(986.974 7.77321 0)
(901.713 179.417 0)
(670.149 -304.602 0)
(423.843 -301.192 0)
(811.766 27.3894 0)
(459.652 319.247 0)
(861.431 -209.45 0)
(240.765 -90.3802 0)
(707.293 348.106 0)
(838.483 318.058 0)
(964.629 385.901 0)
(676.139 345.774 0)
(590.262 336.769 0)
(898.289 191.626 0)
(1080.31 4.74138 0)
(990.006 0.00696496 0)
(220.215 -16.5832 0)
(827.885 239.932 0)
(876.264 216.196 0)
(611.777 355.682 0)
(988.183 -1.92052 0)
(732.94 198.114 0)
(780.164 -310.36 0)
(992.044 -5.38874 0)
(-59.444 17.5516 0)
(549.602 285.511 0)
(990.038 0.0583866 0)
(696.67 336.591 0)
(836.44 -246.826 0)
(990 5.1056e-07 0)
(859.87 -207.342 0)
(903.21 150.359 0)
(990.232 -0.650689 0)
(988.31 252.612 0)
(758.27 -273.882 0)
(1020.2 -189.998 0)
(990.105 0.375225 0)
(150.232 -112.728 0)
(985.732 -32.8322 0)
(990 -0.000191098 0)
(990 0.000463857 0)
(984.583 -37.4232 0)
(990 0.00118719 0)
(284.73 -208.727 0)
(1019.67 262.597 0)
(990 -9.30073e-07 0)
(1029.6 -362.847 0)
(568.307 -350.969 0)
(501.406 296.642 0)
(345.886 -254.398 0)
(753.564 -331.807 0)
(990 -7.72552e-14 0)
(987.741 0.0826568 0)
(417.801 -297.615 0)
(996.148 279.5 0)
(990 -8.16173e-12 0)
(953.06 85.6301 0)
(1035.84 312.665 0)
(761.956 434.561 0)
(697.003 -346.813 0)
(490.436 9.98677 0)
(878.938 14.4645 0)
(1020.49 -198.166 0)
(1022.42 -130.475 0)
(861.337 -118.894 0)
(730.46 -325.818 0)
(464.101 -333.369 0)
(881.486 200.236 0)
(410.803 -159.187 0)
(761.717 318.888 0)
(282.157 -281.044 0)
(397.539 224.843 0)
(341.385 -245.52 0)
(452.227 -305.615 0)
(699.244 344.473 0)
(874.427 -143.608 0)
(292.639 -190.009 0)
(476.343 312.083 0)
(275.334 -127.917 0)
(854 -130.48 0)
(567.34 351.353 0)
(608.937 320.803 0)
(443.003 315.974 0)
(241.083 -130.793 0)
(106.716 -54.1113 0)
(881.517 52.4501 0)
(989.992 -0.00336908 0)
(401.895 -288.387 0)
(992.451 -5.39585 0)
(385.728 -295.901 0)
(691.774 -213.644 0)
(234.348 -107.705 0)
(990.352 3.53638 0)
(915.46 49.229 0)
(491.594 310.055 0)
(958.77 -109.35 0)
(653.058 -344.739 0)
(576.792 346.16 0)
(197.879 -181.07 0)
(747.903 -333.268 0)
(990 -0.000515201 0)
(990 -1.68332e-12 0)
(989.233 -0.50553 0)
(676.265 -240.346 0)
(990 0.000601147 0)
(1025.61 -153.882 0)
(956.585 -31.4471 0)
(737.807 -338.401 0)
(988.29 0.637982 0)
(1003.29 -238.725 0)
(990 -0.0002816 0)
(505.903 341.623 0)
(284.486 186.972 0)
(767.978 -266.595 0)
(912.927 158.594 0)
(761.516 170.599 0)
(734.86 -264.184 0)
(286.443 289.189 0)
(990 -1.68946e-05 0)
(654.162 -324.756 0)
(1037.7 -350.247 0)
(1008.87 23.2168 0)
(449.346 -315.192 0)
(991.848 2.57141 0)
(744.392 -333.883 0)
(982.729 171.036 0)
(588.168 -275.605 0)
(905.894 194.497 0)
(990 -1.03473e-11 0)
(610.426 -346.772 0)
(648.364 -270.913 0)
(990.003 -0.00712476 0)
(990 5.9184e-12 0)
(348.067 -178.983 0)
(564.494 326.493 0)
(72.6361 -6.02247 0)
(990.001 -0.00177839 0)
(561.509 327.145 0)
(960.697 -54.4814 0)
(621.893 -258.686 0)
(902.782 85.894 0)
(990.024 -0.00816301 0)
(982.614 195.821 0)
(389.245 -284.571 0)
(928.465 43.9838 0)
(668.338 -344.718 0)
(1092.09 -17.2207 0)
(999.472 290.159 0)
(670.776 -309.253 0)
(137.197 -101.434 0)
(950.395 -26.1806 0)
(961.094 -61.201 0)
(997.137 1.07194 0)
(962.929 -170.826 0)
(990 -6.87827e-12 0)
(479.861 -301.985 0)
(768.118 319.394 0)
(596.39 352.602 0)
(990.295 0.23401 0)
(824.38 112.487 0)
(657.877 344.78 0)
(344.012 -250.181 0)
(629.656 307.511 0)
(985.166 10.1637 0)
(260.676 136.784 0)
(1000.98 422.683 0)
(910.138 -92.9895 0)
(675.962 307.597 0)
(631.875 -252.06 0)
(913.871 148.409 0)
(921.143 91.8021 0)
(578.065 -303.547 0)
(770.438 -123.679 0)
(989.96 -0.0123887 0)
(1028.78 352.562 0)
(990 0.000267409 0)
(990 -9.29848e-12 0)
(823.778 50.6978 0)
(1034.9 351.553 0)
(990.04 -0.232729 0)
(958.328 -33.2362 0)
(990 4.13348e-08 0)
(881.725 213.381 0)
(451.34 -306.991 0)
(988.895 -0.399021 0)
(885.89 208.265 0)
(990.009 0.00421996 0)
(910.915 155.396 0)
(778.749 262.82 0)
(990 5.43713e-06 0)
(-20.2444 -44.0242 0)
(328.143 263.736 0)
(988.396 -59.8607 0)
(301.448 -246.075 0)
(749.287 329.915 0)
(919.693 39.568 0)
(385.294 304.639 0)
(743.618 -314.312 0)
(989.979 0.310759 0)
(730.578 329.214 0)
(952.644 -37.0837 0)
(826.128 178.894 0)
(912.79 -95.8168 0)
(990.614 2.40478 0)
(630.087 -301.631 0)
(964.643 236.09 0)
(831.557 204.395 0)
(815.739 121.973 0)
(761.614 158.834 0)
(701.897 300.648 0)
(985.815 -371.664 0)
(654.521 -354.125 0)
(491.795 -332.723 0)
(622.479 351.829 0)
(990.02 0.00804532 0)
(587.404 -345.502 0)
(701.102 -48.9593 0)
(933.425 110.248 0)
(620.587 -311.724 0)
(625.043 -342.958 0)
(984.995 -20.0228 0)
(439.597 304.483 0)
(906.896 -97.6787 0)
(675.387 341.946 0)
(762.294 274.261 0)
(990.075 0.287416 0)
(1023.69 -247.952 0)
(913.965 63.7076 0)
(155.829 41.2239 0)
(610.011 302.589 0)
(416.791 -324.153 0)
(909.931 481.184 0)
(989.805 -0.0263644 0)
(520.332 292.355 0)
(707.143 -337.317 0)
(802.817 128.099 0)
(617.794 -304.452 0)
(700.796 119.296 0)
(645.544 -352.43 0)
(646.047 -351.496 0)
(904.497 90.0077 0)
(523.546 292.19 0)
(275.568 287.251 0)
(534.251 310.202 0)
(990 -1.2363e-09 0)
(990 6.57211e-05 0)
(990 1.52611e-11 0)
(843.18 139.201 0)
(442.087 318.415 0)
(126.887 -208.442 0)
(990 4.9417e-06 0)
(506.088 342.614 0)
(817.558 -189.626 0)
(985.078 -26.8401 0)
(948.528 -18.6744 0)
(753.278 -329.586 0)
(990 6.08524e-06 0)
(620.787 349.944 0)
(994.96 167.053 0)
(825.556 -246.189 0)
(242.67 -126.793 0)
(990 -0.000236908 0)
(784.379 242.922 0)
(530.363 -306.671 0)
(1016.4 28.8784 0)
(725.063 -99.4612 0)
(705.911 -339.452 0)
(989.874 0.0740756 0)
(990 -0.000258539 0)
(990 2.77767e-11 0)
(655.717 -343.478 0)
(561.25 282.323 0)
(990 1.72174e-13 0)
(285.142 179.065 0)
(968.214 268.397 0)
(656.258 241.682 0)
(446.064 301.104 0)
(640.468 357.802 0)
(214.501 -60.6524 0)
(990 -2.63796e-12 0)
(-19.1928 -41.1179 0)
(990.011 -0.0191976 0)
(990 -5.49066e-12 0)
(973.924 -17.3454 0)
(907.096 189.545 0)
(797.142 -263.132 0)
(218.156 -19.4492 0)
(990 -1.31736e-11 0)
(999.48 -242.439 0)
(959.165 100.607 0)
(760.56 -205.227 0)
(990 1.36024e-05 0)
(991.702 -396.571 0)
(642.77 308.812 0)
(958.714 -210.2 0)
(990.014 0.0800539 0)
(1024.7 236.802 0)
(1001.88 -247.376 0)
(356.993 255.375 0)
(990 5.77767e-05 0)
(873.1 -200.064 0)
(921.495 59.2289 0)
(996.644 -355.562 0)
(990.028 0.00646882 0)
(141.454 110.895 0)
(1004.53 -156.471 0)
(990.034 0.0112786 0)
(986.933 1.89434 0)
(933.643 149.658 0)
(989.974 -0.313009 0)
(990 6.08812e-12 0)
(871.718 71.0044 0)
(964.277 -436.053 0)
(661.851 -348.176 0)
(567.362 346.666 0)
(294.669 231.734 0)
(1005.06 -161.395 0)
(902.98 -109.015 0)
(990 3.20577e-05 0)
(334.936 263.835 0)
(640.866 346.7 0)
(985.777 9.28209 0)
(818.882 458.206 0)
(990.001 -0.00332444 0)
(1029.91 -377.31 0)
(711.085 302.572 0)
(989.998 0.0213771 0)
(990 -1.36287e-05 0)
(210.038 69.568 0)
(859.829 131.68 0)
(990.584 -0.735858 0)
(763.894 330.044 0)
(990 0.000711236 0)
(527.916 -341.929 0)
(575.859 344.814 0)
(525.051 -340.439 0)
(457.194 -313.972 0)
(431.45 304.531 0)
(675.746 314.919 0)
(874.018 39.6939 0)
(287.183 300.266 0)
(959.714 102.644 0)
(839.178 152.983 0)
(168.332 28.1861 0)
(290.807 185.827 0)
(1036.73 -298.197 0)
(876.725 205.807 0)
(939.755 98.8613 0)
(990 2.94741e-11 0)
(982.563 -0.0900455 0)
(990 -2.96165e-12 0)
(867.36 -114.207 0)
(148.526 207.786 0)
(801.494 149.068 0)
(942.856 -83.5213 0)
(951.342 -155.933 0)
(464.964 54.1352 0)
(881.995 -142.708 0)
(1016.7 110.087 0)
(983.78 -0.572885 0)
(990.184 0.340089 0)
(990 -1.46229e-11 0)
(474.337 316.767 0)
(894.286 43.5105 0)
(1031.42 -215.786 0)
(217.835 -2.46018 0)
(780.542 -203.621 0)
(198.761 -193.204 0)
(128.446 -103.298 0)
(1007.41 -35.9332 0)
(239.536 233.488 0)
(426.148 -303.474 0)
(430.888 304.238 0)
(640.846 307.351 0)
(497.197 333.273 0)
(990 0.000135899 0)
(577.494 344.574 0)
(958.547 -197.451 0)
(990 -7.74974e-12 0)
(816.706 225.376 0)
(671.429 313.811 0)
(1012.86 -238.244 0)
(960.467 -79.8256 0)
(955.776 -119.524 0)
(995.21 -9.75107 0)
(231.632 120.814 0)
(356.692 -186.279 0)
(990.044 -0.0681994 0)
(1027.03 -34.5618 0)
(952.335 -475.844 0)
(491.875 325.627 0)
(854.146 234.323 0)
(707.049 -323.592 0)
(990 0.00033783 0)
(918.987 -166.935 0)
(984.038 -7.85189 0)
(706.901 277.599 0)
(572.773 -355.984 0)
(980.772 131.607 0)
(989.999 -3.61848e-05 0)
(990 2.30505e-05 0)
(961.668 -151.84 0)
(850.397 -25.0813 0)
(965.718 -414.933 0)
(809.087 134.584 0)
(991.768 -4.09755 0)
(638.827 301.679 0)
(989.993 0.0047255 0)
(645.161 -345.274 0)
(707.532 6.24491 0)
(987.26 77.0927 0)
(818.396 -348.843 0)
(958.525 -87.4247 0)
(966.15 -178.779 0)
(854.908 -154.176 0)
(658.72 345.352 0)
(965.45 -82.1267 0)
(883.64 -181.503 0)
(735.584 221.415 0)
(984.559 83.963 0)
(721.16 -332.51 0)
(704.284 284.016 0)
(472.857 301.306 0)
(406.828 289.382 0)
(1014.74 90.9521 0)
(250.263 234.439 0)
(779.017 257.009 0)
(427.606 -302.392 0)
(692.686 -345.787 0)
(807.519 -284.871 0)
(279.953 173.539 0)
(351.438 275.018 0)
(614.481 83.3577 0)
(986.631 -16.7648 0)
(989.695 0.455385 0)
(360.071 -270.726 0)
(456.977 323.107 0)
(1076.45 -52.2345 0)
(505.046 333.645 0)
(990 7.4276e-05 0)
(990 -1.1907e-11 0)
(990 -1.03383e-11 0)
(739.469 327.15 0)
(565.851 -319.671 0)
(989.994 0.00350466 0)
(990 -8.39273e-12 0)
(988.915 -0.898173 0)
(989.998 0.000697898 0)
(279.897 105.987 0)
(299.048 218.248 0)
(355.534 110.709 0)
(991.457 0.379248 0)
(993.263 -4.5087 0)
(376.332 267.076 0)
(965.516 114.648 0)
(1012.3 351.781 0)
(990 -1.45416e-12 0)
(316.026 252.709 0)
(989.033 -319.507 0)
(822.811 -182.183 0)
(989.449 6.27236 0)
(412.753 -296.121 0)
(981.763 -180.444 0)
(397.62 -288.001 0)
(809.474 -253.265 0)
(1013.18 83.6117 0)
(989.742 0.487234 0)
(534.952 288.273 0)
(989.987 0.0177939 0)
(393.74 298.987 0)
(1021.99 35.1135 0)
(319.189 -251.1 0)
(832.258 173.295 0)
(862.63 64.4834 0)
(651.675 -281.566 0)
(933.162 8.43988 0)
(426.428 -313.12 0)
(990 -9.46918e-12 0)
(990.119 0.0901378 0)
(990 1.29048e-11 0)
(990 0.000419049 0)
(399.634 287.522 0)
(994.1 -215.189 0)
(350.726 257.472 0)
(809.337 -248.419 0)
(617.842 296.466 0)
(990.06 0.0534993 0)
(990.009 0.0342005 0)
(1022.63 383.454 0)
(266.21 278.39 0)
(614.251 353.132 0)
(877.558 66.7613 0)
(409.552 224.146 0)
(379.596 -297.332 0)
(832.332 166.508 0)
(232.418 -80.9237 0)
(990 2.88644e-11 0)
(990 -5.33876e-05 0)
(986.511 -387.975 0)
(984.556 232.18 0)
(810.637 -253.885 0)
(990 1.82084e-07 0)
(962.205 -60.1255 0)
(1034 247.977 0)
(216.918 -96.0486 0)
(704.771 341.08 0)
(989.958 -0.0486912 0)
(380.589 -318.144 0)
(646.883 244.053 0)
(989.963 -0.144989 0)
(989.999 -0.00141519 0)
(1036.84 268.81 0)
(851.224 -145.406 0)
(825.872 176.51 0)
(1025.12 -263.108 0)
(788.112 143.168 0)
(989.982 -0.106586 0)
(552.357 -289.082 0)
(668.81 -290.402 0)
(456.422 -308.339 0)
(1047.87 49.8022 0)
(827.068 263.162 0)
(990 1.47867e-11 0)
(417.408 -298.995 0)
(347.236 255.983 0)
(980.075 -89.4031 0)
(870.571 -201.37 0)
(1021.94 -34.7418 0)
(640.241 351.143 0)
(868.515 -196.269 0)
(465.902 302.084 0)
(990 -4.20633e-05 0)
(989.996 -0.00304891 0)
(367.65 -272.282 0)
(659.627 275.299 0)
(884.821 -27.3727 0)
(758.803 172.047 0)
(1001.17 302.913 0)
(990.006 0.00138661 0)
(569.144 300.33 0)
(374.484 -275.787 0)
(440.22 -304.983 0)
(740.024 329.102 0)
(987.997 427.166 0)
(899.866 104.858 0)
(260.437 -299.572 0)
(248.081 73.4196 0)
(482.739 299.729 0)
(981.915 449.731 0)
(86.4067 -31.4843 0)
(283.673 -195.498 0)
(643.008 -229.596 0)
(943.257 139.94 0)
(735.034 309.845 0)
(675.362 -339.909 0)
(874.012 -102.328 0)
(744.758 -333.06 0)
(603.322 349.673 0)
(989.997 -0.113458 0)
(641.197 -334.901 0)
(107.664 -79.399 0)
(989.997 -0.000660422 0)
(911.098 -57.4028 0)
(296.203 -229.503 0)
(716.098 337.926 0)
(990 -1.56588e-11 0)
(360.282 -232.45 0)
(990 0.000126987 0)
(960.376 -65.227 0)
(966.533 167.646 0)
(852.088 239.391 0)
(1006.81 19.1782 0)
(990 -2.98173e-06 0)
(990 -1.39545e-11 0)
(391.452 -283.605 0)
(981.926 -443.911 0)
(990 -2.85237e-09 0)
(1012.28 -47.168 0)
(737.392 -331.42 0)
(198.302 -3.92311 0)
(990 -8.28019e-06 0)
(705.694 301.318 0)
(283 -274.123 0)
(1003.21 -11.5678 0)
(768.979 -327.507 0)
(996.613 -8.71366 0)
(1128.69 27.6664 0)
(757.263 291.578 0)
(836.948 168.339 0)
(-97.8625 7.75082 0)
(609.15 -317.837 0)
(248.383 -94.1922 0)
(375.248 -312.247 0)
(854.902 -217.378 0)
(1024.08 -380.477 0)
(989.577 278.986 0)
(908.728 149.812 0)
(1038.43 -351.064 0)
(787.471 -183.534 0)
(990.036 0.615499 0)
(747.011 -334.12 0)
(726.61 -202.08 0)
(366.016 272.142 0)
(689.368 -346.056 0)
(990 3.60046e-12 0)
(587.419 -300.71 0)
(989.875 0.112952 0)
(276.416 132.014 0)
(989.919 -0.0589275 0)
(989.759 -0.626115 0)
(998.36 -29.9633 0)
(1028.33 -395.608 0)
(990.021 -0.000325894 0)
(768.989 305.441 0)
(990 1.24299e-11 0)
(644.263 -333.137 0)
(871.76 -99.5652 0)
(1040.57 -347.007 0)
(206.486 -256.084 0)
(990 3.17738e-11 0)
(518.231 332.371 0)
(989.169 -0.523334 0)
(831.602 153.539 0)
(990 3.52423e-12 0)
(903.477 -40.1543 0)
(940.896 29.0485 0)
(991.28 -2.07724 0)
(990 -1.31722e-12 0)
(212.421 -267.072 0)
(983.079 383.501 0)
(539.151 333.267 0)
(674.13 283.874 0)
(991.389 -241.482 0)
(594.137 -331.404 0)
(589.964 272.736 0)
(710.504 285.055 0)
(640.574 -167.426 0)
(990 -0.000135864 0)
(990 4.27101e-12 0)
(951.579 -160.183 0)
(239.024 36.5348 0)
(990 -8.15012e-12 0)
(713.647 321.272 0)
(990 1.33211e-05 0)
(287.087 -306.924 0)
(996.53 -220.952 0)
(993.647 0.909003 0)
(698.139 311.439 0)
(951.324 149.898 0)
(320.141 -312.927 0)
(965.567 -54.4051 0)
(861.509 -227.867 0)
(674.273 -206.436 0)
(987.918 -187.615 0)
(904.129 152.391 0)
(761.986 -172.565 0)
(243.911 66.6096 0)
(485.166 -332.81 0)
(691.882 339.292 0)
(653.982 -355.887 0)
(990 1.54505e-05 0)
(990 -0.000342795 0)
(984.724 3.07633 0)
(979.712 0.784059 0)
(714.491 -199.732 0)
(990 2.79102e-12 0)
(990 4.35064e-12 0)
(869.158 -202.095 0)
(551.231 -347.794 0)
(613.121 295.239 0)
(706.059 -218.136 0)
(989.997 0.00787056 0)
(989.999 -0.00474557 0)
(721.849 330.215 0)
(1020.67 27.3206 0)
(289.981 185.316 0)
(991.339 -238.235 0)
(606.662 -322.237 0)
(993.036 431.477 0)
(614.124 309.113 0)
(990.001 0.00247746 0)
(406.576 291.303 0)
(933.984 155.256 0)
(635.996 321.304 0)
(990.003 0.00418736 0)
(289.675 65.5077 0)
(989.95 -0.0131089 0)
(990 -1.08315e-11 0)
(990 3.7301e-11 0)
(980.483 -449.495 0)
(844.984 151.061 0)
(1003.96 -15.5702 0)
(1017.67 370.465 0)
(918.073 28.911 0)
(961.146 -126.519 0)
(162.393 142.06 0)
(233.346 -52.9729 0)
(991.194 3.15506 0)
(782.763 -260.217 0)
(996.908 14.4345 0)
(990 4.74385e-11 0)
(734.812 295.056 0)
(743.421 -320.207 0)
(989.287 -0.0847942 0)
(747.511 328.741 0)
(990 -4.2219e-12 0)
(656.626 -255.381 0)
(965.091 -76.8585 0)
(884.353 47.484 0)
(701.215 -339.716 0)
(563.399 284.802 0)
(991.874 5.34207 0)
(990 0.000639907 0)
(590.267 -275.032 0)
(288.185 -193.076 0)
(745.805 325.017 0)
(217.726 3.43748 0)
(888.309 -23.0153 0)
(886.92 66.6811 0)
(963.603 -83.3874 0)
(989.963 -0.0278157 0)
(1031.21 260.063 0)
(476.036 314.81 0)
(555.984 -302.575 0)
(990 2.52178e-08 0)
(874.381 240.121 0)
(988.167 -4.18199 0)
(441.902 -317.51 0)
(658.019 345.601 0)
(707.187 -207.813 0)
(990 2.6734e-06 0)
(408.684 -52.5628 0)
(989.952 0.0141944 0)
(990 -0.0017017 0)
(375.724 304.928 0)
(989.998 -0.0020527 0)
(381.986 -280.121 0)
(1022.92 36.1321 0)
(826.212 211.466 0)
(674.563 -345.448 0)
(781.787 -282.196 0)
(862.487 -205.766 0)
(853.174 -240.414 0)
(854.501 222.017 0)
(839.49 -132.173 0)
(1020.79 -129.35 0)
(980.797 -89.463 0)
(902.428 -187.779 0)
(990 8.94442e-13 0)
(890.073 145.019 0)
(961.897 388.384 0)
(990.004 0.0198909 0)
(779.462 305.044 0)
(759.963 -329.827 0)