/*--------------------------------*- C++ -*----------------------------------*\
| =========                 |                                                 |
| \\      /  F ield         | OpenFOAM: The Open Source CFD Toolbox           |
|  \\    /   O peration     | Version:  2406                                  |
|   \\  /    A nd           | Website:  www.openfoam.com                      |
|    \\/     M anipulation  |                                                 |
\*---------------------------------------------------------------------------*/
FoamFile
{
    version     2.0;
    format      ascii;
    arch        "LSB;label=32;scalar=64";
    class       volScalarField;
    location    "0.0006000075829";
    object      p;
}
// * * * * * * * * * * * * * * * * * * * * * * * * * * * * * * * * * * * * * //

dimensions      [1 -1 -2 0 0 0 0];

internalField   nonuniform List<scalar> 
17141
(
79.78
79.78
79.78
79.7865
79.78
79.7777
79.8231
149.31
79.78
79.7804
79.78
79.78
574.18
79.78
21.8299
79.779
79.78
79.0966
464.258
59.7561
79.78
79.78
184.607
26.9495
79.78
79.78
79.78
79.78
202.416
56.5209
79.8017
79.78
79.78
79.8246
233.046
56.1992
79.78
110.464
79.78
79.7788
30.9825
105.863
79.7801
964.055
186.008
79.7801
347.228
51.8904
79.78
79.78
79.78
79.78
175.11
96.2439
79.78
242.313
79.7871
79.78
333.62
70.8094
9.71214
79.78
94.6212
79.78
80.2408
79.7793
79.78
79.7803
79.7805
79.78
13.1394
776.466
79.7799
79.78
79.78
79.78
79.78
40.1647
738.248
79.78
79.78
87.0126
80.0546
79.78
79.78
564.181
79.78
50.7739
79.78
79.78
79.78
79.8184
20.3027
29.9214
79.7783
79.78
79.7798
79.78
183.644
79.78
79.78
79.7968
79.78
79.78
79.78
947.24
79.78
382.668
79.78
79.78
141.944
246.5
74.414
79.7798
79.78
26.6009
79.78
79.78
79.7799
78.4014
81.361
79.78
79.78
79.78
80.3559
192.817
79.6701
35.3866
79.78
79.78
79.7806
79.78
38.7998
79.78
69.5663
9.33261
162.978
116.23
79.7796
178.273
174.915
79.78
79.78
79.6701
654.614
79.78
807.497
79.78
195.01
79.78
28.0735
83.3759
774.296
23.1934
79.78
79.78
79.78
34.0483
79.78
79.78
79.78
79.7412
79.7801
155.22
77.7328
79.78
234.98
181.979
79.78
79.78
79.78
79.78
79.78
79.78
766.798
15.9834
40.1486
542.424
79.7801
17.9914
79.78
79.78
79.7778
79.78
535.009
116.483
79.78
79.78
79.7805
145.506
79.78
79.781
79.78
79.78
630.575
711.439
507.095
132.686
72.2426
66.6535
10.5896
56.7979
431.297
178.21
79.7801
101.398
122.974
79.78
80.2647
79.78
13.4546
79.7802
79.7802
717.216
189.983
79.3812
16.0062
79.7799
79.78
28.4254
79.78
79.78
79.78
79.78
173.218
79.7797
67.2314
79.78
79.78
79.7799
410.419
79.7786
79.7752
19.1197
79.78
32.9457
79.7797
56.8778
79.78
67.8539
53.8302
79.6809
767.746
78.1669
79.78
79.78
144.723
109.775
58.2866
79.78
79.78
79.7917
142.288
79.7846
79.7777
79.7358
79.7799
79.78
79.7797
79.78
79.78
79.297
79.78
102.506
727.186
79.7801
79.7807
92.8318
749.125
714.949
79.78
79.78
79.78
79.78
79.78
79.7797
14.3759
111.209
27.4441
74.4797
311.401
355.586
79.78
79.7823
35.4345
79.7584
79.78
79.78
861.017
79.7794
10.1089
79.78
157.885
13.4384
97.5531
77.4506
12.722
79.7792
21.9857
71.4944
79.78
79.7723
457.395
79.78
79.78
466.751
79.78
66.6009
79.78
79.78
79.8002
79.7797
79.78
10.2424
103.541
286.998
79.7801
99.4636
77.772
459.508
11.6128
80.199
837.007
34.3183
79.7755
78.0633
183.976
70.4406
10.6072
79.78
704.654
79.78
222.511
553.123
79.78
79.78
79.78
32.7466
335.814
15.115
79.78
79.7799
740.705
79.78
79.78
79.8194
191.784
79.78
815.704
79.78
79.78
10.5224
118.835
556.667
69.7635
79.7791
79.78
79.78
79.78
308.907
79.78
79.78
79.78
79.78
51.6604
79.78
79.78
79.7801
195.594
284.554
79.78
79.78
88.4874
223.998
352.799
27.8042
79.4856
518.748
21.2863
157.952
79.78
426.145
79.78
213.72
79.78
83.2985
79.78
79.78
79.78
79.5307
114.994
444.703
93.0088
79.78
79.78
17.2549
79.78
626.173
50.0457
79.78
79.78
225.665
41.9573
379.544
43.2795
79.78
9.3324
79.78
79.78
79.78
79.7799
79.7794
353.709
79.78
40.9693
79.78
44.54
287.409
79.78
530.542
679.73
79.78
79.78
79.7581
79.78
79.7807
79.78
79.78
604.145
79.7798
79.7799
79.7805
79.78
79.78
79.7738
79.78
79.78
64.1742
12.316
79.78
79.78
79.78
79.78
79.78
79.78
171.287
79.78
79.7799
79.7791
94.0972
79.78
79.7801
79.78
79.7778
139.077
79.7764
79.78
79.78
79.78
19.818
70.2355
69.4629
79.78
83.0524
11.5591
837.341
79.78
79.78
79.7769
79.78
659.529
241.365
114.008
13.1067
77.8316
79.78
79.78
79.8904
79.7745
55.9749
218.859
79.78
574.294
79.78
52.5832
736.517
54.3686
79.78
79.78
24.1968
79.78
18.9054
10.6391
79.78
79.5581
48.152
79.78
339.459
370.819
333.402
69.2562
79.78
79.78
725.682
79.78
229.628
79.78
79.78
497.622
384.205
79.78
79.7801
36.4055
79.7947
79.78
79.78
799.961
38.7348
203.125
79.78
33.0098
79.78
79.78
79.78
79.78
79.78
110.071
79.78
79.78
79.78
406.051
393.715
79.78
79.78
79.78
79.78
78.5148
352.334
79.78
26.1423
225.896
79.78
79.78
79.7795
198.465
79.78
428.147
62.5552
79.78
136.637
79.78
79.7797
80.2129
79.78
79.78
77.072
69.7813
80.0753
93.9296
79.7727
51.3833
14.9801
79.78
154.192
152.932
79.78
79.78
11.1593
435.499
79.78
79.78
661.405
358.147
39.2225
90.2109
79.7799
79.78
421.245
12.9677
18.6246
79.7751
791.206
79.78
63.897
12.9772
79.78
584.351
79.78
200.107
79.78
79.8466
79.78
894.949
363.813
537.356
828.911
74.8947
216.679
79.78
179.163
79.9399
79.78
79.78
79.78
80.6538
79.78
79.78
79.78
145.26
739.735
79.7791
79.7758
445.821
79.78
150.559
59.5975
79.78
79.78
25.1715
291.522
78.5194
262.297
36.6863
79.78
148.762
46.159
79.762
79.7811
79.7793
408.763
20.4179
596.325
79.78
122.881
79.78
206.435
79.78
79.78
79.78
79.7783
79.7873
79.78
79.78
79.78
79.78
79.78
79.78
746.741
79.78
308.753
79.78
79.78
79.78
467.367
79.78
80.0915
22.9952
79.78
434.236
79.78
258.729
79.78
850.509
79.7748
79.78
329.848
79.78
192.597
373.216
569.158
94.9135
79.7806
216.399
77.0032
79.78
25.6569
17.0895
79.78
79.8025
208.764
79.78
79.78
254.671
79.78
221.198
79.78
79.78
198.27
79.78
79.78
13.9669
372.522
79.78
79.78
194.488
79.78
213.97
160.234
79.78
25.1582
79.78
33.1609
79.78
899.367
104.73
79.78
79.78
108.887
79.78
690.424
24.4941
79.78
15.1924
79.7809
462
79.7793
79.78
79.78
79.78
152.837
21.953
79.78
79.78
19.9361
9.81464
79.78
79.78
90.8938
31.2631
48.3868
133.025
79.78
79.7799
216.914
79.78
79.78
683.643
79.78
79.7843
480.847
79.78
148.528
79.7802
581.097
79.9346
140.691
79.7783
433.913
466.274
79.7806
10.2922
102.384
79.78
79.5693
79.78
565.267
217.797
80.0917
79.78
94.5175
79.7808
152.649
79.78
79.8208
847.819
79.78
79.78
79.78
79.78
274.282
79.78
43.315
64.6122
79.78
79.78
39.1418
79.78
79.7795
79.7717
79.78
171.233
176.527
79.78
679.76
79.78
332.065
17.1455
79.78
79.7785
79.78
79.78
35.0618
330.68
151.537
79.78
79.9011
79.78
79.78
79.78
79.78
477.44
12.937
79.78
468.286
103.154
267.53
79.78
79.78
43.5479
79.7797
54.1945
80.0417
79.78
20.7206
369.83
921.649
62.155
107.041
79.78
38.7774
79.78
506.251
79.78
79.78
79.78
137.821
79.7811
79.7802
394.589
79.78
79.782
10.9465
116.603
79.7801
261.276
161.298
79.78
435.89
146.304
79.78
15.4531
79.78
79.78
105.59
17.0043
79.78
63.3839
79.78
196.827
477.506
79.78
199.678
79.78
168.79
79.78
79.78
13.6837
688.055
130.008
741.732
79.78
90.3914
79.7802
79.9561
79.78
79.78
59.2624
179.772
118.476
79.78
387.216
31.4076
207.307
144.733
165.287
357.249
15.7347
79.78
79.78
79.78
79.78
79.78
56.8007
79.78
414.2
80.2542
94.5895
378.643
119.011
79.7789
79.78
79.78
24.6473
79.78
923.409
11.2037
481.369
11.1789
79.78
438.114
79.7772
144.804
403.12
144.44
79.7801
79.7805
46.0514
436.249
689.687
481.961
79.78
79.78
79.78
149.9
449.844
854.076
79.78
79.7799
188.406
98.5877
62.2132
79.78
79.78
79.7798
39.2345
79.78
79.7701
79.78
79.78
368.939
79.78
79.78
79.7793
79.78
79.78
79.78
79.78
360.272
79.78
79.7727
27.0707
266.615
408.871
79.7797
902.65
79.78
13.4099
79.78
79.78
79.78
189.147
79.78
530.222
79.78
25.0586
139.359
79.78
79.78
10.8062
395.256
35.5055
79.78
25.8193
24.6309
79.78
79.78
208.919
50.0081
12.6402
79.78
9.20807
36.135
79.78
79.78
173.283
79.78
79.78
109.546
13.4991
79.7757
79.7865
757.18
35.3652
46.7975
79.78
688.837
79.8622
79.78
9.44697
79.78
14.6585
79.78
79.78
79.78
79.78
49.8324
79.78
79.78
79.78
79.7802
79.7796
79.7779
78.4762
79.7846
383.382
98.1218
653.726
142.141
160.361
912.984
79.7531
21.7159
220.853
53.708
79.78
79.78
79.78
129.627
844.789
162.734
48.098
43.6141
40.267
79.78
52.2164
82.1979
79.78
79.78
89.0724
95.905
31.584
274.257
205.403
842.633
932.613
79.78
764.612
506.561
79.5643
394.168
77.8242
79.78
79.8081
36.0808
79.78
79.78
384.167
38.4754
122.792
45.8076
79.78
696.375
79.78
79.78
79.78
11.9222
79.78
192.354
79.9699
79.78
183.567
85.8332
313.192
79.78
41.5745
79.78
79.78
38.9757
56.278
14.3628
151.097
79.78
383.492
79.78
79.7665
68.2433
138.273
22.1109
127.841
37.5864
79.78
79.7632
132.707
183.004
30.5459
140.852
79.7798
325.203
512.455
655.815
57.8915
759.538
79.78
611.24
79.78
79.9344
79.78
79.7791
38.5585
79.78
79.78
665.083
79.9448
79.78
79.78
79.78
79.78
79.78
79.78
79.7801
79.78
79.78
79.78
79.78
79.7866
381.2
26.7682
79.78
79.78
80.2102
156.316
25.2453
79.78
734.758
19.5734
180.398
79.78
220.607
37.4856
79.7796
268.278
60.4619
79.78
391.106
79.78
79.7807
79.78
743.705
175.635
108.345
79.78
64.6017
79.7792
79.78
79.78
79.78
79.78
641.986
28.1593
70.3874
79.78
377.539
79.78
79.78
15.8982
709.184
79.7782
106.377
79.78
571.09
170.147
172.004
79.78
79.78
14.8602
27.8476
273.018
79.78
107.139
27.0648
12.2616
79.78
79.78
545.043
276.592
79.78
79.78
24.8536
152.042
177.066
22.9681
155.417
79.78
328.326
79.78
79.7774
79.78
79.64
79.78
580.29
79.7563
139.311
204.246
79.78
79.7801
199.904
526.214
79.78
79.78
67.2225
327.725
92.6585
176.501
19.3977
79.78
426.118
671.519
492.083
79.78
10.6573
79.78
658.613
79.7791
492.785
9.61055
962.998
79.7801
231.999
170.892
80.6655
79.8621
123.175
79.7801
79.7795
79.78
77.769
944.722
79.78
67.4787
748.108
79.78
79.78
79.7811
79.78
110.594
46.3618
104.277
79.78
79.78
79.78
645.863
10.5711
79.78
74.9906
79.7798
877.322
79.78
358.209
687.154
79.78
79.78
79.78
79.78
79.78
169.943
14.8938
442.842
79.6745
558.238
223.042
14.359
22.9137
161.994
17.4018
188.736
79.78
79.78
219.486
255.695
79.7757
79.78
422.806
79.78
79.7654
79.78
79.78
79.78
16.4685
79.78
79.7801
79.78
63.249
45.1545
17.7781
766.992
79.78
79.7798
79.78
79.78
79.78
72.3001
60.2482
79.78
79.78
753.756
15.3003
79.7801
79.78
25.4208
430.673
18.5249
321.908
196.172
79.78
79.78
43.1686
79.7772
79.78
79.5683
79.78
622.481
27.6778
79.78
365.286
43.9385
574.983
57.8433
152.464
209.459
41.8852
163.318
185.112
79.7947
79.7933
79.78
79.78
79.78
79.78
79.78
79.78
212.892
79.78
79.78
205.277
79.7796
374.796
240.935
79.78
79.78
79.78
79.78
79.7817
25.5743
466.006
10.7686
79.7793
79.78
644.619
181.37
423.081
79.78
79.7809
79.78
79.78
79.78
9.51244
79.78
79.78
13.4313
79.7799
45.4907
9.82532
79.7853
79.78
79.78
79.78
79.78
79.78
79.7879
79.78
79.78
79.78
298.445
126.188
52.5373
79.7801
387.925
79.78
79.78
341.419
79.7788
79.78
216.482
90.7326
105.223
132.313
79.78
40.1017
426.82
79.78
79.78
32.5232
79.78
79.7782
79.7809
234.282
79.78
40.4919
79.78
79.78
79.7801
79.78
663.361
79.78
214.725
79.78
79.78
212.633
113.996
240.94
143.892
47.8266
137.062
189.846
79.78
49.0834
17.0974
79.78
79.78
79.78
296.657
16.0255
79.78
79.78
915.951
298.637
65.1406
79.78
17.4129
395.722
291.91
79.78
188.507
79.78
80.1307
79.7801
225.964
78.8216
76.4451
79.7801
120.678
78.3729
856.006
79.78
173.769
79.78
79.78
241.41
80.0624
45.92
79.78
79.6479
79.78
79.78
79.78
98.6161
277.007
208.01
205.56
604.915
79.78
13.0058
421.174
79.78
489.46
79.7778
79.78
79.78
101.122
57.1431
79.78
159.161
123.071
79.78
521.813
79.78
185.477
215.94
79.78
79.78
79.78
79.78
79.78
79.78
157.912
176.681
79.78
18.8661
79.78
75.9489
244.438
435.152
79.7652
54.5296
79.78
79.78
656.861
79.779
79.78
19.3542
79.78
132.688
79.78
79.78
241.947
79.78
774.504
79.78
79.78
696.82
79.78
79.78
79.78
10.9343
116.411
382.566
420.967
79.78
86.053
79.78
646.771
127.984
10.6933
79.78
55.0294
79.8272
79.78
668.335
79.78
545.389
36.0322
79.78
53.3844
79.78
79.78
89.9224
79.78
79.78
105.274
79.7979
23.6042
79.78
79.78
79.7802
79.7924
79.78
28.1955
79.78
79.7797
63.1281
79.78
168.01
187.651
40.0161
197.082
79.78
923.086
185.993
79.78
79.78
433.227
126.834
79.7951
9.6953
17.1564
40.4648
481.663
79.7548
81.6528
79.78
49.1521
34.4746
79.78
463.021
408.073
79.78
209.711
79.78
79.7817
181.213
79.78
202.209
291.949
79.78
79.78
106.041
98.0843
79.7754
79.78
79.78
27.8916
79.78
462.722
79.7664
167.91
79.78
79.78
22.8818
237.779
79.78
91.0353
79.78
79.78
209.061
79.8244
79.78
95.1481
402.603
12.1397
174.495
79.78
37.6248
79.78
79.78
79.78
79.78
296.411
12.5681
79.78
319.928
79.7799
79.78
31.7126
79.78
208.485
79.7829
79.78
19.2213
910.162
396.807
79.78
393.57
79.78
56.3192
79.78
144.797
79.78
322.176
79.7685
24.1884
9.67924
79.78
396.517
93.9241
79.7798
32.708
79.7805
666.153
79.78
219.082
14.7261
45.5441
55.1836
565.886
86.6334
79.78
79.865
79.78
79.7748
106.762
79.78
79.3937
66.0655
79.78
79.78
32.5318
85.4717
79.7801
79.78
79.78
79.8487
317.981
39.6022
54.1512
49.2209
309.368
375.882
191.417
79.78
79.78
181.177
79.78
79.78
79.78
79.78
458.755
315.164
314.241
79.78
46.31
79.78
32.9706
62.09
499.593
79.78
79.78
79.78
24.3603
229.246
29.6773
140.09
22.6741
135.785
79.7797
90.4994
79.78
79.78
114.74
79.78
63.7303
259.672
79.78
79.78
194.828
377.825
12.9243
79.78
79.78
79.78
197.406
14.0441
863.579
79.8517
15.4132
144.355
77.7476
79.78
143.924
78.8345
79.7871
79.78
79.9275
10.9813
155.468
93.3374
171.573
79.78
13.3198
79.78
79.78
49.3919
79.78
79.78
79.78
50.2234
79.78
23.8074
79.78
79.78
79.78
22.035
193.208
79.78
79.78
79.7779
79.78
905.416
79.7763
79.78
79.78
418.744
750.282
79.78
929.353
79.78
9.86882
19.7274
79.78
79.78
151.094
96.7523
79.7802
80.1727
79.78
301.309
29.5903
502.06
50.2704
51.5407
79.78
71.8818
79.7801
79.78
334.805
79.78
735.393
175.557
79.78
74.7194
79.78
198.705
79.6208
79.78
79.78
365.063
62.7053
79.7801
79.7839
249.955
79.78
79.783
319.234
79.78
79.78
79.78
79.78
289.923
638.539
79.78
79.78
24.3691
79.7799
110.983
159.16
282.063
79.78
145.126
79.78
79.78
79.73
355.207
79.78
35.3464
74.3364
66.3115
79.7793
79.78
104.57
256.469
11.1608
46.9101
79.78
47.0221
201.843
79.7798
196.17
48.0034
789.586
79.78
79.78
79.78
187.97
79.7845
79.78
9.10134
79.7801
51.0837
79.78
534.426
79.78
79.78
520.181
79.78
41.5304
79.78
93.5474
79.6172
79.7686
329.666
79.78
80.41
81.8152
79.78
574.537
79.9551
174.481
79.78
953.268
45.7086
342.38
70.7645
48.1027
25.3604
79.78
303.83
79.78
79.78
85.4737
85.198
269.706
221.661
552.209
89.0926
152.486
79.78
79.78
79.78
79.78
340.168
79.78
403.764
74.6619
79.78
92.9995
53.7228
161.149
78.3819
79.78
79.78
376.213
79.78
79.78
58.1859
79.78
201.937
22.2735
79.779
79.78
813.981
103.567
79.78
79.7799
416.393
120.321
79.7795
99.4753
68.631
902.984
79.7799
265.368
898.826
30.0025
334.585
14.7781
79.78
810.985
162.338
79.78
644.252
292.01
660.472
79.78
66.5386
660.124
73.9397
79.78
79.78
80.0255
79.78
509.341
79.78
152.643
72.7988
79.78
79.78
79.78
79.7802
79.78
56.6088
79.78
79.7821
46.4412
17.2609
22.1988
96.0404
79.78
266.605
79.78
892.285
19.1771
79.78
9.25375
79.78
184.237
202.878
613.165
79.78
602.879
51.658
162.888
45.4544
264.469
181.093
79.8379
79.78
102.679
214.043
796.491
79.78
581.573
164.131
79.78
198.794
79.5341
20.9437
147.487
47.8974
79.78
79.78
468.045
79.78
892.141
79.78
79.78
75.0781
79.78
14.2341
660.885
209.854
78.3266
79.78
692.965
79.78
21.4924
79.78
139.064
79.78
414.35
79.78
368.797
53.1502
400.194
79.78
79.78
168.909
79.7514
79.7801
79.6482
79.7801
79.78
82.1881
79.78
79.7884
79.78
209.456
79.78
183.418
94.5479
64.5963
79.78
79.78
214.651
539.202
79.78
168.001
79.78
10.6078
372.82
79.78
660.637
69.1567
392.164
13.2764
79.78
79.7807
79.78
79.78
60.8969
79.78
67.8979
99.1437
79.78
79.78
79.78
79.78
79.7788
79.78
76.6625
15.7672
312.186
79.78
79.78
79.78
42.5018
14.6186
79.78
79.78
414.245
412.511
470.972
259.834
412.471
79.78
412.294
79.78
159.572
48.6157
66.0649
475.76
79.78
79.78
69.6728
175.971
46.4507
902.767
79.78
79.78
79.78
783.093
46.0996
20.0267
79.78
9.30415
79.78
13.9349
726.984
79.7998
79.78
79.78
48.6124
17.8482
79.78
15.6765
48.8973
124.861
79.78
171.133
636.428
40.4207
79.78
21.9839
79.78
79.78
79.78
197.414
79.78
79.78
281.283
72.8001
79.78
79.78
79.78
450.35
79.7778
552.021
79.78
79.78
29.4019
79.78
79.78
79.78
79.7659
80.0012
46.7759
79.78
79.7784
15.2144
79.78
79.8197
103.585
73.7661
79.78
79.78
794.864
79.7805
134.918
79.78
79.78
79.78
48.2908
79.78
25.0493
540.672
44.2127
79.78
127.382
776.828
86.3701
636.401
81.4495
79.7801
139.218
12.9569
79.78
79.78
57.165
79.7801
483.871
79.78
132.801
79.78
185.516
771.446
79.78
85.0093
79.78
72.2678
79.78
466.543
79.78
47.9534
613.809
79.78
171.705
707.773
79.78
79.7801
79.78
466.439
355.835
79.78
226.164
79.78
79.78
79.7804
79.7777
907.618
79.78
573.535
79.78
79.78
79.7801
880.253
79.78
152.33
79.78
58.4671
79.7789
388.814
144.937
79.4515
300.565
75.0276
79.7796
75.4574
79.78
297.647
79.78
66.489
12.9017
143.773
79.78
79.78
79.78
157.818
815.066
79.78
79.78
79.78
79.78
332.888
79.78
79.7798
80.0045
79.78
79.78
848.454
166.418
79.78
79.78
408.837
17.8556
79.78
157.88
79.8436
79.7798
79.78
809.206
171.642
754.894
79.78
79.78
79.78
787.01
187.609
9.86349
79.7763
170.818
85.8077
465.067
312.037
285.167
79.7802
79.7798
67.2359
79.7801
79.7924
79.7777
79.78
368.754
10.555
14.213
80.0904
79.7613
17.5835
79.8423
661.603
852.836
79.78
79.7901
220.293
79.78
79.78
48.9582
79.78
79.78
79.78
16.4181
95.5264
122.064
79.78
79.78
129.211
121.009
79.78
20.802
79.78
79.78
382.796
67.0659
79.78
164.588
351.251
30.9403
103.475
292.247
101.04
79.78
79.78
287.84
79.78
808.053
200.271
79.78
114.291
76.6738
759.359
79.78
102.47
187.912
79.78
872.471
59.041
79.301
79.78
786.54
51.2207
14.7951
79.78
391.04
13.2501
243.055
14.0069
79.78
284.846
480.459
690.265
79.7822
20.0952
79.78
185.748
79.78
79.7799
79.78
52.7682
79.78
79.78
71.337
449.055
580.114
586.391
841.549
175.77
269.035
79.78
9.61843
79.7802
79.8106
79.78
340.486
21.1755
157.345
45.2782
79.7115
79.78
79.78
79.7448
79.7863
64.1919
79.78
79.78
396.795
79.7801
640.652
79.78
79.7787
79.78
33.9219
79.78
14.7044
56.8228
79.78
132.613
79.7795
79.7555
103.647
79.78
79.78
79.78
79.78
115.375
79.78
99.5396
68.8139
195.588
79.78
79.78
160.573
79.78
79.78
79.78
79.78
79.78
144.249
227.033
79.78
79.78
11.7398
27.294
79.78
516.781
79.78
79.7801
81.4827
24.7481
79.78
79.7798
79.7797
10.774
79.7772
79.78
79.7803
79.78
774.027
79.78
32.5241
79.78
278.702
92.8581
79.78
77.9305
48.0873
921.098
734.591
21.2203
18.6045
79.78
793.651
79.78
79.78
79.78
140.464
154.478
79.8407
713.172
79.78
544.719
271.361
79.78
82.4799
60.9633
79.78
79.78
79.7807
79.4394
602.79
79.78
64.3625
79.7799
108.749
79.78
955.86
262.533
79.78
79.7798
79.7794
256.343
79.78
161.189
493.504
79.78
220.037
423.345
130.334
27.0579
79.78
218.22
263.505
79.7969
126.607
54.993
79.78
671.741
515.868
79.78
79.78
79.7824
126.793
79.78
79.7801
60.4512
242.221
158.153
190.467
526.901
139.063
79.7778
79.78
433.412
662.561
79.78
79.78
79.78
54.1685
25.6811
79.78
836.748
389.631
79.78
79.78
79.78
81.3662
79.78
351.535
79.78
79.78
172.357
71.329
154.945
229.688
163.263
79.7801
79.7814
26.1569
49.9477
251.37
786.156
41.9216
131.708
840.963
9.36092
79.8742
79.78
79.78
854.412
59.7265
32.4108
57.1653
78.9668
118.655
79.78
79.78
230.072
79.78
79.78
694.811
79.779
79.78
969.953
65.5868
79.78
79.7787
384.665
590.015
79.78
317.152
79.78
684.664
785.051
51.5982
79.78
295.125
79.78
112.095
79.78
79.78
79.78
79.78
79.78
349.138
79.78
79.78
23.6432
79.78
126.209
91.9423
11.0158
79.78
22.5138
186.017
115.922
755.483
79.7764
19.1067
48.5252
79.78
228.673
79.78
764.3
443.434
79.78
79.8991
119.814
58.1134
60.4825
14.2371
79.78
38.2458
611.207
9.88817
201.509
79.9222
14.605
79.78
73.2722
118.83
312.687
9.74877
79.7687
79.78
79.7798
716.225
158.828
79.78
12.2525
79.78
503.948
79.7801
19.9864
79.78
279.052
39.4373
79.78
407.572
70.3003
503.057
79.78
826.912
79.7849
326.786
79.78
182.911
79.78
79.78
79.78
428.574
79.4928
79.78
166.744
690.365
79.7803
17.2438
200.836
53.8934
79.78
79.78
15.7702
79.78
613.516
883.132
126.162
14.4399
298.146
16.5253
878.063
45.8756
79.78
73.5384
664.036
52.0717
79.7925
79.78
79.8678
79.7867
187.352
68.9939
532.61
79.78
448.709
274.448
13.6227
149.636
79.774
824.369
231.084
51.1901
79.8135
814.894
770.509
79.78
314.236
79.78
318.674
79.78
79.78
203.99
70.9271
819.205
79.78
139.206
469.571
871.208
79.7954
13.0151
79.78
218.933
79.7796
69.0938
11.0685
79.78
9.13709
107.271
79.78
79.78
50.362
79.78
79.78
79.8481
79.78
79.78
79.78
79.78
79.78
60.8995
17.3024
79.78
79.7814
79.78
162.23
79.78
672.354
79.7803
51.6846
79.78
171.626
147.043
79.78
79.78
79.78
79.78
37.9349
79.78
67.7955
853.37
79.78
79.7769
46.6586
464.096
141.182
866.211
79.78
108.982
535.333
590.596
13.1099
79.78
46.999
239.966
79.78
44.6102
531.382
44.726
79.78
759.693
333.983
79.78
41.8638
79.78
405.798
79.7797
734.156
276.718
46.0459
79.78
487.666
79.78
79.78
415.573
54.669
79.7774
202.281
227.456
42.6179
67.3108
204.987
79.78
430.089
79.78
754.444
156.519
79.78
34.2097
568.402
377.497
490.819
126.708
393.748
292.132
279.041
28.8022
122.233
79.78
80.143
12.9784
94.9363
79.78
555.634
22.4125
90.1369
79.78
54.0708
720.419
19.2716
155.313
140.969
79.7765
587.442
79.78
461.711
79.7801
79.78
414.775
79.78
74.468
105.981
79.78
79.78
48.1699
233.354
26.8783
176.459
536.764
16.4886
261.914
426.911
80.6523
247.485
189.375
79.78
79.7804
79.7803
156.036
79.78
790.734
104.965
79.78
86.5992
79.78
239.377
178.208
180.995
11.5294
79.78
79.78
842.395
651.655
621.336
79.78
371.573
79.78
691.764
216.986
79.78
78.592
786.329
169.694
147.931
79.78
41.3793
233.807
510.448
79.78
73.5625
164.319
79.78
79.78
448.279
79.78
79.78
119.329
180.547
124.095
322.615
135.709
79.78
362.762
67.1992
323.02
79.78
14.2838
117.72
145.607
79.78
556.129
186.191
79.78
79.7804
76.7441
854.367
79.78
79.78
33.0561
542.81
79.78
79.78
79.78
127.312
739.411
67.5545
490.527
79.78
304.349
79.78
763.379
211.408
358.372
79.78
82.1442
162.742
79.78
19.5508
14.343
870.991
79.78
12.2718
221.883
17.1304
343.739
577.139
548.471
79.78
79.8526
79.7761
30.7537
709.536
722.09
140.167
34.8462
251.433
131.871
639.102
123.139
204.905
79.7794
14.1752
79.78
204.926
84.9721
293.528
79.78
64.0227
394.818
79.7802
33.73
79.78
79.78
511.021
620.011
79.78
79.7537
79.78
79.7799
106.376
158.034
119.98
86.7185
462.924
79.78
79.7799
79.78
79.78
737.147
79.78
79.78
36.5936
79.78
140.777
79.2965
13.8118
79.78
79.78
457.862
56.7263
79.78
173.423
301.86
79.78
74.6051
304.693
81.5764
450.034
76.8722
52.0617
163.323
749.008
79.7783
79.7942
79.78
397.267
79.78
158.627
123.261
719.802
23.067
154.754
247.432
640.337
626.507
79.78
97.4532
153.424
218.992
257.508
79.7799
245.745
84.2506
141.47
134.34
167.886
79.7802
615.637
45.5577
79.78
48.5855
24.3799
79.78
79.78
381.136
62.9691
79.78
464.892
749.746
182.325
79.78
79.78
14.1093
308.06
455.621
79.78
107.369
100.882
79.78
54.5148
79.9983
391.346
79.78
35.2772
9.17479
79.78
79.78
154.046
79.78
171.662
156.696
79.78
10.0667
8.97909
79.6877
629.523
50.7363
79.78
79.78
79.78
79.7393
811.642
78.5048
79.78
672.606
23.9305
79.78
768.275
507.71
31.8376
79.78
9.85695
78.3985
365.785
79.78
496.639
79.78
546.926
581.353
73.7487
255.433
305.928
79.7399
79.78
129.766
49.7394
79.78
79.78
79.78
79.78
79.78
79.78
82.9048
250.783
79.78
82.8108
90.5701
79.78
929.936
566.798
645.572
79.7812
79.78
79.7804
46.0702
48.4339
511.317
79.78
26.0184
29.6738
169.527
126.043
79.78
79.78
79.7804
79.78
106.203
79.7813
550.226
602.946
17.9224
79.78
79.78
172.985
79.78
79.78
79.78
462.109
399.65
79.78
433.721
436.645
458.289
244.98
17.9317
79.78
128.752
160.229
79.78
362.228
79.78
85.375
261.855
149.561
79.78
213.505
79.78
486.601
79.78
33.5756
419.558
249.455
272.03
79.7783
870.846
289.228
50.8551
455.834
29.7461
79.78
74.1787
520.291
16.497
131.835
683.224
79.78
79.7771
27.674
104.091
18.395
124.991
127.936
79.78
701.028
879.632
79.78
470.321
41.0413
182.859
180.53
784.164
79.7807
79.78
79.78
48.3028
80.5613
79.78
79.78
408.988
553.824
125.497
107.934
127.129
743.281
79.7799
79.7699
169.736
710.377
121.003
79.7961
119.258
44.0718
79.78
56.243
131.108
31.8393
79.78
79.78
589.741
42.7234
79.78
9.55163
146.675
79.78
900.593
725.504
79.78
184.194
79.78
79.9873
79.78
395.414
74.768
593.736
726.154
79.78
74.3656
125.381
17.5821
22.2967
429.024
418.423
369.368
31.1641
41.1145
12.4792
13.2335
79.78
79.78
79.78
79.78
486.306
50.98
430.277
79.78
216.488
79.78
79.78
379.468
812.367
360.923
302.492
399.256
79.7814
551.639
195.822
79.7802
79.78
79.78
134.799
79.78
79.78
65.7002
79.78
358.699
79.78
79.78
271.761
79.78
490.158
78.1801
242.663
34.6894
29.1065
79.78
24.4599
21.7632
17.2433
581.676
79.78
298.337
495.487
47.5689
459.794
24.1845
27.8546
79.7801
80.3359
399.972
612.158
52.0434
106.807
67.6177
58.2985
23.0345
146.72
64.3179
749.347
79.3053
79.78
79.78
79.78
21.0325
182.922
79.78
79.78
79.78
110.494
79.78
79.7801
379.628
322.241
79.7803
674.068
21.3557
172.551
71.6386
20.6756
349.616
465.348
79.78
79.7852
552.386
244.797
79.78
79.78
79.0025
131.933
174.846
149.219
389.589
79.78
234.717
79.78
340.509
79.78
79.78
32.5373
605.362
373.397
952.647
9.30536
79.78
171.253
85.8433
532.204
30.1428
79.78
79.78
373.449
79.78
479.774
523.663
79.78
439.048
467.198
81.7598
9.66121
71.1308
14.0683
80.7214
79.78
46.8688
79.78
79.78
79.78
79.78
79.78
79.78
88.5685
79.7799
79.78
137.853
79.78
79.78
79.78
79.78
359.529
133.903
40.1198
349.695
78.0249
302.216
79.78
432.268
79.78
129.285
79.78
79.78
49.725
79.7879
79.78
437.724
424.658
17.4834
517.549
79.9743
79.78
576.274
18.5125
197.706
79.78
532.033
40.1662
146.88
124.965
79.78
266.049
32.9642
321.938
79.78
656.273
79.78
50.6208
79.78
79.78
79.78
102.028
179.039
237.957
914.287
79.7805
15.8717
171.87
79.78
79.78
124.089
342.993
65.9335
79.78
79.78
53.2049
71.9051
79.78
123.221
439.142
79.7793
79.78
79.78
190.323
437.366
77.0486
565.101
358.011
79.78
175.968
765.58
927.737
79.78
30.7455
27.9855
9.36545
79.78
299.198
648.239
79.78
84.1231
67.1625
49.4664
79.78
78.6888
262.047
53.6453
79.78
503.474
117.625
863.841
240.535
52.4233
79.78
110.982
79.78
70.6093
221.394
114.953
620.82
79.78
60.3113
51.4743
563.946
102.824
79.78
44.1772
119.594
550.88
62.1277
681.431
24.1034
111.388
187.316
79.7797
79.78
272.912
206.372
189.154
642.679
79.78
79.7804
79.78
626.58
250.104
79.78
79.7813
79.78
130.769
109.073
47.7617
78.0279
79.78
120.339
79.78
105.391
201.527
125.451
549.433
137.276
79.78
133.053
49.7129
79.015
79.78
79.78
530.94
79.78
293.03
127.217
112.892
414.071
73.0539
127.174
533.314
92.8354
49.614
70.7187
159.483
79.78
79.7799
117.562
97.2232
54.1397
121.498
201.819
291.186
79.78
79.78
270.644
31.3264
79.7592
82.6207
79.78
113.091
73.6887
289.916
814.665
79.4181
511.645
162.817
109.187
12.0838
79.78
136.286
614.977
295.95
533.215
303.038
43.8111
79.78
337.861
79.78
476.096
510.697
79.7762
99.381
685.924
79.78
18.5772
79.7802
150.168
70.2356
415.717
424.276
79.78
417.61
920.047
44.7555
79.78
37.1109
79.78
369.344
129.836
79.78
514.966
70.0099
847.897
215.042
375.337
31.1977
671.073
460.249
75.3223
79.78
111.222
897.387
185.417
31.7035
17.286
79.78
79.78
396.158
79.78
79.7799
96.8947
79.78
79.78
328.032
323.477
16.6144
197.223
79.78
385.809
79.78
79.78
57.8661
47.1389
79.78
135.68
191.648
80.33
95.775
269.476
504.889
76.6794
174.729
171.852
137.537
800.64
79.78
141.862
229.619
334.046
79.78
193.731
79.78
158.973
159.811
236.246
122.516
282.493
516.384
145.444
56.9053
101.345
13.0796
92.5465
443.665
228.756
104.856
79.78
273.031
136.738
79.7714
119.533
100.198
79.78
79.78
204.034
79.78
138.814
890.069
12.2926
79.78
463.803
79.78
128.081
379.334
79.78
83.4681
234.416
79.78
191.981
80.7633
79.8107
386.986
206.176
80.4504
685.205
79.7801
79.78
79.78
518.317
76.6934
79.78
79.78
79.7801
596.068
271.181
397.728
380.475
50.8207
79.78
144.641
65.253
118.399
69.6512
294.882
54.9871
79.78
79.78
342.603
79.9513
179.484
79.78
864.735
144.911
79.78
137.009
79.78
339.803
91.8073
79.78
63.7881
286.705
208.97
79.7799
270.542
283.523
219.438
13.2354
306.003
121.468
146.759
79.7808
21.2794
79.78
175.592
98.7222
79.78
53.3643
58.1749
375.63
154.106
79.78
442.678
601.533
74.7534
413.891
240.129
78.5834
38.1718
79.78
72.4171
421.219
486.83
146.498
99.9925
500.728
413.182
41.0412
94.9432
39.1658
240.052
74.8363
17.5761
408.903
404.429
145.999
79.78
156.941
530.159
948.963
125.984
263.967
80.1246
79.78
479.448
79.4829
79.7799
79.78
737.663
79.78
253.68
614.61
79.78
79.78
119.822
79.78
109.567
16.9126
18.583
375.202
79.78
628.888
61.887
27.2343
130.548
436.449
79.777
236.314
473.34
119.818
373.754
79.78
181.841
79.78
269.239
260.009
260.861
79.78
146.048
129.532
157.229
265.906
216.617
79.78
79.7962
21.45
64.5055
240.492
79.78
25.7653
92.7369
332.385
53.3047
79.78
79.78
39.3145
19.6548
79.7804
79.78
67.0617
256.812
79.7806
79.7799
109.408
79.834
79.78
79.78
629.082
79.78
519.835
265.38
79.78
68.0167
566.668
79.78
67.9112
79.78
130.562
324.977
79.7816
232.369
217.823
886.28
450.818
166.707
79.7795
416.64
79.8301
122.519
79.7693
79.78
314.278
426.852
79.7801
134.75
130.773
99.1544
87.4513
537.904
79.78
54.775
116.048
201.897
188.124
33.1181
351.595
79.7122
79.78
173.395
31.3999
120.808
148.266
83.2534
79.78
43.3276
31.1339
79.78
79.78
142.883
62.9456
322.149
258.176
20.1336
35.3897
342.25
79.7456
275.526
79.78
355.668
391.767
112.009
222.423
151.428
79.78
506.463
269.346
153.568
222.643
79.7852
120.856
79.78
122.591
437.36
79.78
82.701
46.9406
67.5647
79.78
284.937
56.2117
55.8609
79.78
31.5374
71.5489
82.3004
221.123
290.393
79.78
66.4943
407.052
79.78
201.503
62.5884
30.5615
122.776
386.393
36.4413
160.66
356.153
83.3502
70.4039
99.84
79.78
55.88
297.655
82.9082
54.0738
152.943
79.78
12.1899
58.9012
178.094
79.78
186.139
79.78
80.296
152.836
167.218
85.8771
79.7764
138.462
309.092
45.1967
41.8537
63.6847
151.943
86.8059
79.8904
162.939
117.516
163.655
80.0842
426.09
110.224
227.377
82.5414
79.78
79.7692
440.013
537.222
131.461
383.884
79.78
204.087
864.133
66.9878
79.78
11.8476
52.1468
79.6942
387.17
256.159
496.821
73.0316
339.662
79.78
47.6846
93.2553
80.2255
79.78
49.2282
236.771
241.834
87.0461
472.998
790.78
798.819