/*--------------------------------*- C++ -*----------------------------------*\
| =========                 |                                                 |
| \\      /  F ield         | OpenFOAM: The Open Source CFD Toolbox           |
|  \\    /   O peration     | Version:  2406                                  |
|   \\  /    A nd           | Website:  www.openfoam.com                      |
|    \\/     M anipulation  |                                                 |
\*---------------------------------------------------------------------------*/
FoamFile
{
    version     2.0;
    format      ascii;
    arch        "LSB;label=32;scalar=64";
    class       volScalarField;
    location    "0.0006000075829";
    object      rho;
}
// * * * * * * * * * * * * * * * * * * * * * * * * * * * * * * * * * * * * * //

dimensions      [1 -3 0 0 0 0 0];

internalField   nonuniform List<scalar> 
17141
(
0.00102459
0.00102459
0.00102459
0.00102467
0.00102459
0.00102455
0.00102507
0.00105791
0.00102459
0.00102459
0.00102459
0.00102459
0.00300455
0.00102459
0.000311034
0.00102458
0.00102459
0.00102
0.00256391
0.000448127
0.00102459
0.00102459
0.00181189
0.000280744
0.00102459
0.00102459
0.00102459
0.00102459
0.00170984
0.000546403
0.00102478
0.00102459
0.00102459
0.00102486
0.0016017
0.000588587
0.00102459
0.0012368
0.00102459
0.00102458
0.000365632
0.00119803
0.00102459
0.00415542
0.00160338
0.00102459
0.00254672
0.000550311
0.00102459
0.00102459
0.00102459
0.00102459
0.00175216
0.00107028
0.00102459
0.00213589
0.00102465
0.00102459
0.00247218
0.000957802
9.04827e-05
0.00102459
0.00076931
0.00102459
0.00102635
0.00102458
0.00102459
0.00102459
0.00102459
0.00102459
0.00018211
0.00377326
0.00102459
0.00102459
0.00102459
0.00102459
0.00102459
0.000371026
0.00369427
0.00102459
0.00102459
0.00107798
0.00102711
0.00102459
0.00102459
0.00291853
0.00102459
0.000500639
0.00102459
0.00102459
0.00102459
0.00102497
0.000249099
0.000396973
0.00102457
0.00102459
0.00102459
0.00102459
0.00180734
0.00102459
0.00102459
0.00102475
0.00102459
0.00102459
0.00102459
0.00410882
0.00102459
0.00258412
0.00102459
0.00102459
0.00110511
0.0021665
0.000976223
0.00102459
0.00102459
0.000321633
0.00102459
0.00102459
0.00102459
0.00101424
0.00101148
0.00102459
0.00102459
0.00102459
0.00102975
0.0018607
0.00102353
0.000490577
0.00102459
0.00102459
0.00102459
0.00102459
0.000345533
0.00102459
0.000640597
7.47695e-05
0.00113818
0.00125403
0.00102458
0.0011946
0.00174868
0.00102459
0.00102459
0.00102331
0.0031361
0.00102459
0.00361689
0.00102459
0.00165587
0.00102459
0.00037566
0.0010564
0.00377807
0.000261444
0.00102459
0.00102459
0.00102459
0.000470371
0.00102459
0.00102459
0.00102459
0.00102422
0.00102459
0.00162378
0.00100986
0.00102459
0.00162155
0.00177322
0.00102459
0.00102459
0.00102459
0.00102459
0.00102459
0.00102459
0.00347061
0.000228504
0.000414222
0.00282696
0.00102459
0.000221489
0.00102459
0.00102459
0.00102457
0.00102459
0.00281214
0.000989771
0.00102459
0.00102459
0.0010246
0.00151425
0.00102459
0.0010246
0.00102459
0.00102459
0.00302236
0.00352959
0.00284854
0.00145763
0.000985285
0.000636961
4.69965e-05
0.00046819
0.00294611
0.0017477
0.00102459
0.000902482
0.0010357
0.00102459
0.00103458
0.00102459
0.00019299
0.00102459
0.00102459
0.00348464
0.00132467
0.00102138
0.000232151
0.00102459
0.00102459
0.000338669
0.00102459
0.00102459
0.00102459
0.00102459
0.00172108
0.00102459
0.00038888
0.00102459
0.00102459
0.00102459
0.00261489
0.00102457
0.00102452
0.000235232
0.00102459
0.000383396
0.00102459
0.000596238
0.00102459
0.000388104
0.000720655
0.00102393
0.00344386
0.00101548
0.00102459
0.00102459
0.00135049
0.00118715
0.000599659
0.00102459
0.00102459
0.0010245
0.00102145
0.00102464
0.00102457
0.00102429
0.00102459
0.00102459
0.00102459
0.00102459
0.00102459
0.0010312
0.00102459
0.00116532
0.00338556
0.00102459
0.0010246
0.000761785
0.00372564
0.00333807
0.00102459
0.00102459
0.00102459
0.00102459
0.00102459
0.00102458
5.58028e-05
0.000985595
0.000325498
0.000991028
0.00199037
0.00230705
0.00102459
0.0010246
0.000373496
0.00102448
0.00102459
0.00102459
0.00379868
0.00102458
5.4125e-05
0.00102459
0.00164298
5.37347e-05
0.00112186
0.00100391
0.000178116
0.00102463
0.000119187
0.000749131
0.00102459
0.00102451
0.0027917
0.00102459
0.00102459
0.00243572
0.00102459
0.0005561
0.00102459
0.00102459
0.0010248
0.00102459
0.00102459
0.000120636
0.00119958
0.00193734
0.00102459
0.00116327
0.00101226
0.00264924
0.000156412
0.00102889
0.00394205
0.000466855
0.00102454
0.00101534
0.00179445
0.000743771
0.000131035
0.00102459
0.00328716
0.00102459
0.00155127
0.0032419
0.00102459
0.00102459
0.00102459
0.000445693
0.00211598
0.000210009
0.00102459
0.00102459
0.00345231
0.00102459
0.00102459
0.00102495
0.00164116
0.00102459
0.00380959
0.00102459
0.00102459
0.000132228
0.0013336
0.00326728
0.000965127
0.00102458
0.00102459
0.00102459
0.00102459
0.00198141
0.00102459
0.00102459
0.00102459
0.00102459
0.000382196
0.00102459
0.00102459
0.00102459
0.00187779
0.00185346
0.00102459
0.00102459
0.0010677
0.00157025
0.00228022
0.000375635
0.00102221
0.00274218
0.00016512
0.00111346
0.00102459
0.00221221
0.00102459
0.00193915
0.00102459
0.000771382
0.00102459
0.00102459
0.00102459
0.00102242
0.00127596
0.00272131
0.000762422
0.00102459
0.00102459
0.000185618
0.00102459
0.00320062
0.000230571
0.00102459
0.00102459
0.00203801
0.000598171
0.00271575
0.000393235
0.00102459
5.54617e-05
0.00102459
0.00102459
0.00102459
0.00102459
0.00102458
0.00200081
0.00102459
0.000287755
0.00102459
0.000452418
0.00186546
0.00102459
0.00315793
0.00330685
0.00102459
0.00102459
0.00102437
0.00102459
0.00102459
0.00102459
0.00102459
0.00311353
0.00102459
0.00102459
0.00102459
0.00102459
0.00102459
0.00102456
0.00102459
0.00102459
0.000536762
0.000178845
0.00102459
0.00102459
0.00102459
0.00102459
0.00102459
0.00102459
0.00122713
0.00102459
0.00102459
0.00102458
0.000865174
0.00102459
0.00102459
0.00102459
0.00102458
0.00109196
0.0010245
0.00102459
0.00102459
0.00102459
0.000292327
0.000611422
0.000646892
0.00102459
0.000766835
0.000155257
0.00374684
0.00102459
0.00102459
0.00102456
0.00102459
0.00348138
0.00211298
0.0012976
0.000174248
0.0010305
0.00102459
0.00102459
0.00102535
0.00102453
0.000459774
0.00199433
0.00102459
0.00332953
0.00102459
0.000341168
0.00363102
0.000565432
0.00102459
0.00102459
0.000185231
0.00102459
0.000292377
0.000140305
0.00102459
0.00102268
0.000484679
0.00102459
0.00214438
0.00221129
0.00188941
0.00065672
0.00102459
0.00102459
0.00342207
0.00102459
0.00203627
0.00102459
0.00102459
0.0025403
0.00246433
0.00102459
0.00102459
0.000271371
0.00102472
0.00102459
0.00102459
0.00375269
0.000445694
0.00186509
0.00102459
0.000340699
0.00102459
0.00102459
0.00102459
0.00102459
0.00102459
0.00126369
0.00102459
0.00102459
0.00102459
0.00230316
0.00251914
0.00102459
0.00102459
0.00102459
0.00102459
0.000981863
0.0019342
0.00102459
0.000355848
0.00187711
0.00102459
0.00102459
0.00102458
0.0018982
0.00102459
0.00281873
0.000529663
0.00102459
0.00096524
0.00102459
0.00102459
0.0010283
0.00102459
0.00102459
0.00100222
0.000951709
0.0010273
0.00110347
0.00102452
0.000238092
0.000224239
0.00102459
0.00117887
0.00120743
0.00102459
0.00102459
7.31218e-05
0.00227031
0.00102459
0.00102459
0.0030265
0.00266429
0.000547057
0.0010677
0.00102459
0.00102459
0.00292166
5.17311e-05
0.000285628
0.00102454
0.0038526
0.00102459
0.000515248
0.000147647
0.00102459
0.00272933
0.00102459
0.00137902
0.00102459
0.00102519
0.00102459
0.00406664
0.00218417
0.00317756
0.00368662
0.000638705
0.00180658
0.00102459
0.00127198
0.00102568
0.00102459
0.00102459
0.00102459
0.00103114
0.00102459
0.00102459
0.00102459
0.000813188
0.00346818
0.00102458
0.00102456
0.00282044
0.00102459
0.00139939
0.000431549
0.00102459
0.00102459
0.000369969
0.00226578
0.000991089
0.00173406
0.000513769
0.00102459
0.000969876
0.000323539
0.00102435
0.0010246
0.00102458
0.0025897
0.000254922
0.00309393
0.00102459
0.00135481
0.00102459
0.00126244
0.00102459
0.00102459
0.00102459
0.00102457
0.00102466
0.00102459
0.00102459
0.00102459
0.00102459
0.00102459
0.00102459
0.00373911
0.00102459
0.00188009
0.00102459
0.00102459
0.00102459
0.00285648
0.00102459
0.00102743
0.000117915
0.00102459
0.00223504
0.00102459
0.0017182
0.00102459
0.00373758
0.00102453
0.00102459
0.00208977
0.00102459
0.00185196
0.00267508
0.00333922
0.000623112
0.00102459
0.00195168
0.00100824
0.00102459
0.000174038
0.00018962
0.00102459
0.0010248
0.00196961
0.00102459
0.00102459
0.00175393
0.00102459
0.00204309
0.00102459
0.00102459
0.00131028
0.00102459
0.00102459
5.44819e-05
0.00215511
0.00102459
0.00102459
0.001836
0.00102459
0.00192663
0.00157544
0.00102459
0.000301017
0.00102459
0.000444712
0.00102459
0.00407935
0.00121378
0.00102459
0.00102459
0.00125032
0.00102459
0.0036071
0.000304943
0.00102459
0.000224371
0.0010246
0.00265426
0.00102457
0.00102459
0.00102459
0.00102459
0.00139201
0.000269981
0.00102459
0.00102459
0.00029525
6.63561e-05
0.00102459
0.00102459
0.000745577
0.000419578
0.000669956
0.00119084
0.00102459
0.00102459
0.00200896
0.00102459
0.00102459
0.00332276
0.00102459
0.00102462
0.00261163
0.00102459
0.00138938
0.00102459
0.00335376
0.00102549
0.00125366
0.00102457
0.0028428
0.00245252
0.00102459
4.36991e-05
0.00091382
0.00102459
0.0010227
0.00102459
0.00295468
0.00136058
0.00102706
0.00102459
0.000940457
0.0010246
0.0016007
0.00102459
0.00102498
0.00391278
0.00102459
0.00102459
0.00102459
0.00102459
0.00186183
0.00102459
0.000610072
0.000691473
0.00102459
0.00102459
0.000385728
0.00102459
0.00102458
0.00102462
0.00102459
0.00169191
0.00123027
0.00102459
0.00327521
0.00102459
0.00245307
0.000262322
0.00102459
0.00102458
0.00102459
0.00102459
0.000400407
0.00202442
0.00156371
0.00102459
0.00102569
0.00102459
0.00102459
0.00102459
0.00102459
0.00306873
5.23676e-05
0.00102459
0.00301591
0.00114504
0.00156277
0.00102459
0.00102459
0.000387189
0.00102459
0.000339884
0.00102699
0.00102459
0.000259805
0.00267024
0.00413729
0.000513951
0.00118283
0.00102459
0.00041304
0.00102459
0.00286353
0.00102459
0.00102459
0.00102459
0.0011004
0.0010246
0.00102458
0.00264584
0.00102459
0.00102461
0.000155105
0.00116489
0.00102459
0.00153684
0.0016089
0.00102459
0.00275733
0.000969837
0.00102459
0.000223032
0.00102459
0.00102459
0.00071343
0.000245324
0.00102459
0.000683441
0.00102459
0.00189423
0.00258388
0.00102459
0.00191149
0.00102459
0.00166752
0.00102459
0.00102459
5.40436e-05
0.00349814
0.00143407
0.00366815
0.00102459
0.00090576
0.00102459
0.00102616
0.00102459
0.00102459
0.000504355
0.00155173
0.00119408
0.00102459
0.00260107
0.00033525
0.00181453
0.00113895
0.00108315
0.00261697
0.000197742
0.00102459
0.00102459
0.00102459
0.00102459
0.00102459
0.000293304
0.00102459
0.00274064
0.00102894
0.00111368
0.00186278
0.00117945
0.00102458
0.00102459
0.00102459
0.000335438
0.00102459
0.00418298
6.05087e-05
0.00247878
0.000108837
0.00102459
0.00254962
0.00102456
0.00107054
0.00266142
0.000807356
0.00102459
0.00102459
0.000293186
0.00254536
0.00330608
0.00293706
0.00102459
0.00102459
0.00102459
0.00128713
0.00234052
0.00381035
0.00102459
0.00102459
0.0015941
0.00115099
0.000516808
0.00102459
0.00102459
0.00102459
0.000407059
0.00102459
0.00102449
0.00102459
0.00102459
0.00203287
0.00102459
0.00102459
0.00102458
0.00102459
0.00102459
0.00102459
0.00102459
0.00209814
0.00102459
0.00102454
0.00029539
0.00170511
0.00205242
0.00102459
0.00415841
0.00102459
5.44249e-05
0.00102459
0.00102459
0.00102459
0.00183821
0.00102459
0.00290644
0.00102459
0.000307068
0.00148728
0.00102459
0.00102459
0.000135206
0.00274294
0.000367249
0.00102459
0.000345649
0.000304234
0.00102458
0.00102459
0.00193022
0.000323621
0.00014348
0.00102459
3.92487e-05
0.00045609
0.00102459
0.00102459
0.00173346
0.00102459
0.00102459
0.000967929
0.000158344
0.00102455
0.00102465
0.00377514
0.000445006
0.000293794
0.00102459
0.00350136
0.00102535
0.00102459
7.33339e-05
0.00102459
0.000217194
0.00102459
0.00102459
0.00102459
0.00102459
0.000338781
0.00102459
0.00102459
0.00102459
0.00102459
0.00102459
0.00102457
0.00102035
0.00102462
0.00274314
0.000840603
0.00312306
0.00151079
0.00137778
0.00415129
0.00102441
0.00031987
0.00203248
0.000529552
0.00102459
0.00102459
0.00102459
0.00117209
0.00378353
0.00127217
0.00035184
0.00043499
0.000167743
0.00102459
0.000705131
0.000978943
0.00102459
0.00102459
0.00109185
0.000885263
0.000459089
0.00176951
0.00161467
0.00388851
0.00414331
0.00102459
0.00364379
0.00270403
0.0010227
0.00272565
0.00100663
0.00102459
0.00102484
0.000371772
0.00102459
0.00102459
0.00273707
0.000394443
0.00134148
0.00035405
0.00102459
0.00345326
0.00102459
0.00102459
0.00102459
0.000131095
0.00102459
0.00184762
0.00102651
0.00102459
0.00180286
0.00101476
0.00231464
0.00102459
0.000471078
0.00102459
0.00102459
0.000302512
0.000335248
0.000164843
0.00118949
0.00102459
0.0025962
0.00102459
0.00102446
0.000646374
0.00149968
0.000148651
0.00138705
0.000403862
0.00102459
0.00102444
0.00143842
0.00173524
0.000168355
0.0015201
0.00102459
0.00239922
0.002883
0.00353477
0.000771686
0.00363678
0.00102459
0.00349712
0.00102459
0.00102599
0.00102459
0.00102458
0.000171546
0.00102459
0.00102459
0.00351345
0.00102575
0.00102459
0.00102459
0.00102459
0.00102459
0.00102459
0.00102459
0.00102459
0.00102459
0.00102459
0.00102459
0.00102459
0.00102466
0.00228043
0.000107313
0.00102459
0.00102459
0.00102759
0.00162934
0.000272999
0.00102459
0.00367253
0.000238601
0.00153807
0.00102459
0.00166176
0.000320783
0.00102458
0.00226636
0.000799375
0.00102459
0.00223317
0.00102459
0.0010246
0.00102459
0.0037233
0.00153428
0.000915085
0.00102459
0.000527348
0.00102458
0.00102459
0.00102459
0.00102459
0.00102459
0.0034685
0.000337018
0.000949944
0.00102459
0.00246189
0.00102459
0.00102459
0.000212539
0.00339421
0.00102457
0.000953796
0.00102459
0.00296275
0.00146353
0.00146264
0.00102459
0.00102459
0.000189734
0.000326759
0.00230072
0.00102459
0.00118965
0.000391861
5.15167e-05
0.00102459
0.00102459
0.00276914
0.00176204
0.00102459
0.00102459
0.000366536
0.0013556
0.00151856
0.000315515
0.00113337
0.00102459
0.00179773
0.00102459
0.00102459
0.00102459
0.00102354
0.00102459
0.00328486
0.00102447
0.00151125
0.00188679
0.00102459
0.00102459
0.00184534
0.00295319
0.00102459
0.00102459
0.000932302
0.00222743
0.00082284
0.00124098
0.000247532
0.00102459
0.00266113
0.00356793
0.00264154
0.00102459
0.000134068
0.00102459
0.00305629
0.00102458
0.00280019
0.000126797
0.00419465
0.00102459
0.00134763
0.00172355
0.00103289
0.00102534
0.00112036
0.00102459
0.00102458
0.00102459
0.000999878
0.00415388
0.00102459
0.000603256
0.00372367
0.00102459
0.00102459
0.0010246
0.00102459
0.00122147
0.000381295
0.00121568
0.00102459
0.00102459
0.00102459
0.00348705
0.000141382
0.00102459
0.000954542
0.00102459
0.00391125
0.00102459
0.00263261
0.00335868
0.00102459
0.00102459
0.00102459
0.00102459
0.00102459
0.00149526
5.75663e-05
0.00288802
0.00102591
0.0028406
0.00198723
0.000207629
0.000278489
0.00160409
0.000266856
0.0014887
0.00102459
0.00102459
0.00155823
0.00187159
0.00102455
0.00102459
0.00269472
0.00102459
0.00102455
0.00102459
0.00102459
0.00102459
0.000225651
0.00102459
0.00102459
0.00102459
0.000880896
0.000258083
0.000276788
0.00355848
0.00102459
0.00102459
0.00102459
0.00102459
0.00102459
0.000631977
0.000535185
0.00102459
0.00102459
0.00349882
0.000189499
0.00102459
0.00102459
0.000300962
0.00299264
8.78036e-05
0.00239519
0.00106795
0.00102459
0.00102459
0.000431924
0.00102458
0.00102459
0.00102314
0.00102459
0.00291895
0.000333813
0.00102459
0.00270827
0.000448942
0.00273499
0.000634159
0.00157997
0.00125133
0.000367419
0.00160459
0.0013574
0.00102472
0.00102473
0.00102459
0.00102459
0.00102459
0.00102459
0.00102459
0.00102459
0.00143799
0.00102459
0.00102459
0.00189072
0.00102458
0.00243661
0.00168164
0.00102459
0.00102459
0.00102459
0.00102459
0.0010246
0.000302573
0.00304369
0.000146602
0.00102458
0.00102459
0.00347804
0.0017937
0.00293439
0.00102459
0.00102459
0.00102459
0.00102459
0.00102459
0.000121473
0.00102459
0.00102459
0.000193327
0.00102459
0.00035952
4.16592e-05
0.0010246
0.00102459
0.00102459
0.00102459
0.00102459
0.00102459
0.00102466
0.00102459
0.00102459
0.00102459
0.00199241
0.00138164
0.000297652
0.00102459
0.002327
0.00102459
0.00102459
0.00208541
0.00102458
0.00102459
0.00163794
0.000812627
0.000967406
0.00143413
0.00102459
0.000374856
0.00229234
0.00102459
0.00102459
0.000233742
0.00102459
0.00102457
0.0010246
0.00158935
0.00102459
0.000167343
0.00102459
0.00102459
0.00102459
0.00102459
0.00352489
0.00102459
0.00186345
0.00102459
0.00102459
0.00192152
0.00129051
0.00214425
0.0012396
0.000659568
0.00149504
0.00184602
0.00102459
0.000355122
0.000185375
0.00102459
0.00102459
0.00102459
0.00165028
0.000212198
0.00102459
0.00102459
0.00424212
0.0024306
0.000547623
0.00102459
0.000225688
0.00220424
0.00238859
0.00102459
0.00167229
0.00102459
0.00102763
0.00102458
0.00205816
0.00101601
0.000999678
0.00102459
0.00120622
0.00102572
0.00381468
0.00102459
0.00174441
0.00102459
0.00102459
0.00215301
0.00102728
0.000335726
0.00102459
0.00102338
0.00102459
0.00102459
0.00102459
0.000893952
0.00230688
0.00148948
0.00189851
0.00332974
0.00102459
0.000178826
0.00264164
0.00102459
0.00293018
0.00102457
0.00102459
0.00102459
0.000889989
0.000496533
0.00102459
0.00157675
0.00121993
0.00102459
0.00290325
0.00102459
0.00146019
0.00146751
0.00102459
0.00102459
0.00102459
0.00102459
0.00102459
0.00102459
0.00135015
0.00160826
0.00102459
8.74873e-05
0.00102459
0.000990817
0.00201653
0.00262078
0.00102445
0.000345061
0.00102459
0.00102459
0.00313318
0.00102458
0.00102459
0.000254758
0.00102459
0.00145895
0.00102459
0.00102459
0.00200308
0.00102459
0.00380169
0.00102459
0.00102459
0.00319184
0.00102459
0.00102459
0.00102459
0.000119333
0.000973372
0.00271975
0.00276304
0.00102459
0.00102211
0.00102459
0.00346801
0.00125538
0.000146492
0.00102459
0.000484039
0.0010248
0.00102459
0.00315783
0.00102459
0.0030615
0.000417407
0.00102459
0.000350317
0.00102459
0.00102459
0.00105974
0.00102459
0.00102459
0.000567663
0.00102475
0.00026607
0.00102459
0.00102459
0.00102459
0.00102467
0.00102459
0.000345278
0.00102459
0.00102459
0.000530021
0.00102459
0.0016963
0.00164415
0.000405034
0.00172351
0.00102459
0.00396467
0.00182284
0.00102459
0.00102459
0.00230731
0.00138407
0.00102472
0.000110353
0.000114657
0.0005053
0.00274492
0.00102436
0.00101731
0.00102459
0.000667879
0.000298761
0.00102459
0.00253695
0.00280339
0.00102459
0.00145829
0.00102459
0.00102461
0.00139249
0.00102459
0.00137817
0.00224343
0.00102459
0.00102459
0.000896871
0.00113768
0.00102453
0.00102459
0.00102459
0.000115736
0.00102459
0.00254656
0.00102448
0.00143594
0.00102459
0.00102459
0.000338696
0.00160559
0.00102459
0.00112067
0.00102459
0.00102459
0.00168791
0.00102502
0.00102459
0.0010552
0.0027226
0.000175531
0.00163426
0.00102459
0.000425813
0.00102459
0.00102459
0.00102459
0.00102459
0.00235828
7.68981e-05
0.00102459
0.00216482
0.00102459
0.00102459
0.000420485
0.00102459
0.00192607
0.00102461
0.00102459
0.000260924
0.00412282
0.00245579
0.00102459
0.00242446
0.00102459
0.000623227
0.00102459
0.00145468
0.00102459
0.00179648
0.00102458
0.000295207
8.99681e-05
0.00102459
0.00269955
0.00088331
0.00102459
0.000378705
0.00102459
0.00300083
0.00102459
0.00202938
0.000188157
0.000372656
0.000529928
0.00299557
0.000854533
0.00102459
0.00102455
0.00102459
0.00102454
0.00123925
0.00102459
0.0010211
0.000529836
0.00102459
0.00102459
0.000366568
0.000847248
0.00102459
0.00102459
0.00102459
0.00102522
0.00242407
0.000493634
0.000542491
0.000230026
0.00244356
0.00190897
0.0017985
0.00102459
0.00102459
0.00172667
0.00102459
0.00102459
0.00102459
0.00102459
0.00235103
0.00211192
0.00215299
0.00102459
0.000204938
0.00102459
0.000282238
0.000478471
0.00259655
0.00102459
0.00102459
0.00102459
0.000215878
0.00161065
0.000168915
0.00111051
0.000239782
0.000929879
0.00102459
0.000652247
0.00102459
0.00102459
0.000904365
0.00102459
0.000659132
0.00220356
0.00102459
0.00102459
0.00180933
0.00259406
0.000192313
0.00102459
0.00102459
0.00102459
0.00184799
0.000189184
0.00395315
0.00102478
0.000221636
0.00113273
0.00100606
0.00102459
0.00130492
0.00101844
0.00102465
0.00102459
0.00102598
0.000157753
0.00137269
0.000600965
0.00132373
0.00102459
0.000173011
0.00102459
0.00102459
0.000348789
0.00102459
0.00102459
0.00102459
0.000279575
0.00102459
0.000261266
0.00102459
0.00102459
0.00102459
0.000344259
0.0018722
0.00102459
0.00102459
0.00102457
0.00102459
0.00393535
0.00102455
0.00102459
0.00102459
0.00231524
0.00375733
0.00102459
0.00411137
0.00102459
0.000131598
0.000304856
0.00102459
0.00102459
0.00131193
0.00105302
0.00102459
0.00102774
0.00102459
0.00220995
0.000178323
0.0025341
0.000606055
0.000244302
0.00102459
0.000802625
0.00102459
0.00102459
0.00193056
0.00102459
0.0036751
0.00130462
0.00102459
0.000950221
0.00102459
0.00174657
0.00102316
0.00102459
0.00102459
0.00228025
0.000647594
0.00102459
0.00102462
0.00213485
0.00102459
0.00102461
0.0024009
0.00102459
0.00102459
0.00102459
0.00102459
0.00201003
0.00304129
0.00102459
0.00102459
0.000178212
0.00102459
0.00123088
0.0016484
0.00226554
0.00102459
0.00107464
0.00102459
0.00102459
0.00102496
0.00222162
0.00102459
0.000500162
0.000943714
0.000585264
0.00102458
0.00102459
0.000836093
0.00135046
0.000120287
0.000316137
0.00102459
0.000646211
0.00157991
0.00102459
0.0018528
0.000370858
0.0036725
0.00102459
0.00102459
0.00102459
0.0013648
0.00102464
0.00102459
8.92663e-05
0.00102459
0.00029195
0.00102459
0.00318502
0.00102459
0.00102459
0.00270697
0.00102459
0.000168031
0.00102459
0.00107329
0.00102313
0.00102448
0.0022256
0.00102459
0.00102682
0.00104248
0.00102459
0.00320708
0.00102618
0.00174558
0.00102459
0.0042317
0.000227508
0.00239113
0.000976517
0.000260624
0.000377412
0.00102459
0.00208635
0.00102459
0.00102459
0.00104793
0.00105001
0.00227688
0.0014943
0.002932
0.000592673
0.00160167
0.00102459
0.00102459
0.00102459
0.00102459
0.0020665
0.00102459
0.00256171
0.000889956
0.00102459
0.00105824
0.000297548
0.00148092
0.000934865
0.00102459
0.00102459
0.00270136
0.00102459
0.00102459
0.000545659
0.00102459
0.00139484
0.00028051
0.00102458
0.00102459
0.00393234
0.000903518
0.00102459
0.00102459
0.00273476
0.00120985
0.00102458
0.000868648
0.000643582
0.0041431
0.00102459
0.0022457
0.0041197
0.000317069
0.00253575
5.71522e-05
0.00102459
0.00380355
0.00115538
0.00102459
0.00334605
0.00233262
0.00334339
0.00102459
0.000585038
0.00323867
0.000805679
0.00102459
0.00102459
0.00102684
0.00102459
0.00263723
0.00102459
0.00151508
0.000959198
0.00102459
0.00102459
0.00102459
0.00102459
0.00102459
0.00075267
0.00102459
0.00102459
0.00065058
0.000252984
0.00028082
0.00110035
0.00102459
0.00226152
0.00102459
0.00412585
0.000273912
0.00102459
0.000129182
0.00102459
0.00176125
0.00187123
0.0029664
0.00102459
0.00328932
0.000497417
0.00159353
0.000215164
0.00226137
0.00140172
0.00102512
0.00102459
0.000578637
0.00193991
0.00371775
0.00102459
0.00293616
0.00149752
0.00102459
0.00188847
0.0010228
0.00027307
0.00127231
0.000385613
0.00102459
0.00102459
0.00289617
0.00102459
0.00391275
0.00102459
0.00102459
0.00100169
0.00102459
0.000186236
0.00329291
0.00129811
0.000847034
0.00102459
0.00337961
0.00102459
0.000295864
0.00102459
0.00122225
0.00102459
0.00254954
0.00102459
0.0025498
0.000367612
0.00267794
0.00102459
0.00102459
0.00107112
0.00102434
0.00102459
0.00102624
0.00102459
0.00102459
0.000973324
0.00102459
0.00102463
0.00102459
0.0015883
0.00102459
0.00179501
0.00109133
0.000845976
0.00102459
0.00102459
0.0014828
0.00274558
0.00102459
0.00167021
0.00102459
0.000146115
0.00269188
0.00102459
0.00327092
0.000767993
0.00260868
5.70593e-05
0.00102459
0.0010246
0.00102459
0.00102459
0.000453153
0.00102459
0.000597687
0.00110002
0.00102459
0.00102459
0.00102459
0.00102459
0.00102458
0.00102459
0.000688831
0.000203072
0.00185662
0.00102459
0.00102459
0.00102459
0.000174946
5.65735e-05
0.00102459
0.00102459
0.00256612
0.0023377
0.00261086
0.00222078
0.00278558
0.00102459
0.00243535
0.00102459
0.00116111
0.000585386
0.000609256
0.00281035
0.00102459
0.00102459
0.000775823
0.00174047
0.000300027
0.00413918
0.00102459
0.00102459
0.00102459
0.00361362
0.000306629
0.000223317
0.00102459
0.0001269
0.00102459
0.000172587
0.00349535
0.00102475
0.00102459
0.00102459
0.000299195
0.000247323
0.00102459
0.000189806
0.000421761
0.00124284
0.00102459
0.000878536
0.00325374
0.000425479
0.00102459
0.00027004
0.00102459
0.00102459
0.00102459
0.00188354
0.00102459
0.00102459
0.00147092
0.000961969
0.00102459
0.00102459
0.00102459
0.00252533
0.00102457
0.00275201
0.00102459
0.00102459
0.000279475
0.00102459
0.00102459
0.00102459
0.0010245
0.00102588
0.000390826
0.00102459
0.00102457
0.000181995
0.00102459
0.00102496
0.000946395
0.000760488
0.00102459
0.00102459
0.00388617
0.00102459
0.00120386
0.00102459
0.00102459
0.00102459
0.000254533
0.00102459
0.000315548
0.00303807
0.000188266
0.00102459
0.00123154
0.00374681
0.00108047
0.00350478
0.00104009
0.00102459
0.00127468
0.000168603
0.00102459
0.00102459
0.00059277
0.00102459
0.0025126
0.00102459
0.00127944
0.00102459
0.00161651
0.00374052
0.00102459
0.000469473
0.00102459
0.000963333
0.00102459
0.00271946
0.00102459
0.000228304
0.00300583
0.00102459
0.0012684
0.00365597
0.00102459
0.00102459
0.00102459
0.00268963
0.00257566
0.00102459
0.00121302
0.00102459
0.00102459
0.00102459
0.00102456
0.00413754
0.00102459
0.00322746
0.00102459
0.00102459
0.00102459
0.00403076
0.00102459
0.0013744
0.00102459
0.000828587
0.00102458
0.00275906
0.00126156
0.00102182
0.00173978
0.000782
0.00102458
0.000779664
0.00102459
0.0018625
0.00102459
0.000628192
0.000190447
0.00124552
0.00102459
0.00102459
0.00102459
0.00141116
0.00376567
0.00102459
0.00102459
0.00102459
0.00102459
0.00202561
0.00102459
0.00102458
0.00102722
0.00102459
0.00102459
0.00399424
0.00167858
0.00102459
0.00102459
0.00242327
0.000192378
0.00102459
0.0016125
0.00102499
0.00102459
0.00102459
0.00366839
0.00136456
0.00372551
0.00102459
0.00102459
0.00102459
0.00378108
0.00130212
5.35335e-05
0.00102455
0.00165389
0.00106753
0.00257567
0.00210385
0.00169771
0.00102459
0.00102459
0.0005461
0.00102459
0.00102469
0.00102457
0.00102459
0.0026642
0.000142374
5.56046e-05
0.00102848
0.00102443
0.000258259
0.00102516
0.00347849
0.00388897
0.00102459
0.00102472
0.00148374
0.00102459
0.00102459
0.000240088
0.00102459
0.00102459
0.00102459
0.00020201
0.000858878
0.000795371
0.00102459
0.00102459
0.00104193
0.000943073
0.00102459
0.000270501
0.00102459
0.00102459
0.00273023
0.000597384
0.00102459
0.00122817
0.00243705
0.000198673
0.00114155
0.00174988
0.000940882
0.00102459
0.00102459
0.00200836
0.00102459
0.00386971
0.0015247
0.00102459
0.00093628
0.00100173
0.00357603
0.00102459
0.0011965
0.00137137
0.00102459
0.0039257
0.000396761
0.00102095
0.00102459
0.00371972
0.000265563
0.000212909
0.00102459
0.00233836
0.000164978
0.00149779
5.77749e-05
0.00102459
0.00232326
0.00290425
0.00332685
0.00102461
0.000246779
0.00102459
0.00165702
0.00102459
0.00102459
0.00102459
0.000359733
0.00102459
0.00102459
0.000973922
0.00300507
0.00289235
0.00330888
0.00381096
0.00158207
0.00171932
0.00102459
0.000138964
0.00102459
0.00102474
0.00102459
0.00216195
0.000260659
0.0014926
0.000426081
0.00102399
0.00102459
0.00102459
0.00102455
0.00102463
0.000788474
0.00102459
0.00102459
0.00240763
0.00102459
0.00321159
0.00102459
0.00102458
0.00102459
0.000292636
0.00102459
5.73345e-05
0.000326273
0.00102459
0.00146164
0.00102458
0.00102438
0.0012135
0.00102459
0.00102459
0.00102459
0.00102459
0.00127113
0.00102459
0.00109805
0.000653471
0.00188171
0.00102459
0.00102459
0.00141727
0.00102459
0.00102459
0.00102459
0.00102459
0.00102459
0.00129116
0.00136636
0.00102459
0.00102459
0.000153049
0.000290869
0.00102459
0.00265282
0.00102459
0.00102459
0.0007201
0.000216244
0.00102459
0.00102459
0.00102459
5.13435e-05
0.00102456
0.00102459
0.00102459
0.00102459
0.00381388
0.00102459
0.000467802
0.00102459
0.00225229
0.000803447
0.00102459
0.00100722
0.000531141
0.00393772
0.00387413
0.00022568
0.00027329
0.00102459
0.00369286
0.00102459
0.00102459
0.00102459
0.0012403
0.00153357
0.00102516
0.00344868
0.00102459
0.00283315
0.00183299
0.00102459
0.00104348
0.000592291
0.00102459
0.00102459
0.00102456
0.00102288
0.00336311
0.00102459
0.000839974
0.00102459
0.000725034
0.00102459
0.00418921
0.00208957
0.00102459
0.00102459
0.00102458
0.0017477
0.00102459
0.00158599
0.00307528
0.00102459
0.00180147
0.0028619
0.00126125
0.000411611
0.00102459
0.00175709
0.00180862
0.00102479
0.00102642
0.000519037
0.00102459
0.00357259
0.00266539
0.00102459
0.00102459
0.0010246
0.000984279
0.00102459
0.00102459
0.000514395
0.00163181
0.0012288
0.00146762
0.00301024
0.0011135
0.00102457
0.00102459
0.00236985
0.00334185
0.00102459
0.00102459
0.00102459
0.000305175
0.000296154
0.00102459
0.00383466
0.00235434
0.00102459
0.00102459
0.00102459
0.00103945
0.00102459
0.00243703
0.00102459
0.00102459
0.00152427
0.000911779
0.00137912
0.00204122
0.00164232
0.00102459
0.00102469
0.000211987
0.00065536
0.00164643
0.00382504
0.000440135
0.00106834
0.00381919
0.00012823
0.00102549
0.00102459
0.00102459
0.00391147
0.000487463
0.000412271
0.000329484
0.00101721
0.000844791
0.00102459
0.00102459
0.00113918
0.00102459
0.00102459
0.00353636
0.00102458
0.00102459
0.00410854
0.000600702
0.00102459
0.00102458
0.0019304
0.0029869
0.00102459
0.00192207
0.00102459
0.00315651
0.00372885
0.000248865
0.00102459
0.0018601
0.00102459
0.000944958
0.00102459
0.00102459
0.00102459
0.00102459
0.00102459
0.00172568
0.00102459
0.00102459
0.000250663
0.00102459
0.00117707
0.000861032
0.000128875
0.00102459
0.000294784
0.00176953
0.00128787
0.00374813
0.00102456
0.000258101
0.000419089
0.00102459
0.00170872
0.00102459
0.00368226
0.00288492
0.00102459
0.00102574
0.00131439
0.000387768
0.000590612
0.000208397
0.00102459
0.000300321
0.00307407
0.000109059
0.00171945
0.00102592
0.000203861
0.00102459
0.000806113
0.00116793
0.00229402
4.16729e-05
0.00102429
0.00102459
0.00102459
0.00350136
0.00115638