/*--------------------------------*- C++ -*----------------------------------*\
| =========                 |                                                 |
| \\      /  F ield         | OpenFOAM: The Open Source CFD Toolbox           |
|  \\    /   O peration     | Version:  2406                                  |
|   \\  /    A nd           | Website:  www.openfoam.com                      |
|    \\/     M anipulation  |                                                 |
\*---------------------------------------------------------------------------*/
FoamFile
{
    version     2.0;
    format      ascii;
    arch        "LSB;label=32;scalar=64";
    class       volScalarField;
    location    "0.0006000075829";
    object      T;
}
// * * * * * * * * * * * * * * * * * * * * * * * * * * * * * * * * * * * * * //

dimensions      [0 0 0 1 0 0 0];

internalField   nonuniform List<scalar> 
17141
(
270.65
270.65
270.65
270.651
270.65
270.652
270.668
490.57
270.65
270.651
270.65
270.65
664.252
270.65
243.954
270.649
270.65
269.539
629.39
463.494
270.65
270.65
354.144
333.659
270.65
270.65
270.65
270.65
411.484
359.55
270.673
270.65
270.65
270.729
505.736
331.881
270.65
310.446
270.65
270.649
294.534
307.142
270.65
806.4
403.235
270.65
473.911
327.75
270.65
270.65
270.65
270.65
347.375
312.563
270.65
394.33
270.657
270.65
469.068
256.967
373.089
270.65
427.514
270.65
271.746
270.649
270.65
270.65
270.65
270.65
250.788
715.269
270.65
270.65
270.65
270.65
270.65
376.273
694.603
270.65
270.65
280.565
270.915
270.65
270.65
671.919
270.65
352.516
270.65
270.65
270.65
270.68
283.299
261.99
270.648
270.65
270.65
270.65
353.183
270.65
270.65
270.665
270.65
270.65
270.65
801.32
270.65
514.722
270.65
270.65
446.45
395.476
264.953
270.65
270.65
287.474
270.65
270.65
270.65
268.686
279.59
270.65
270.65
270.65
271.237
360.191
270.558
250.723
270.65
270.65
270.651
270.65
390.305
270.65
377.466
433.852
497.717
322.161
270.65
518.712
347.68
270.65
270.65
270.614
725.534
270.65
776.012
270.65
409.35
270.65
259.756
274.332
712.362
308.354
270.65
270.65
270.65
251.605
270.65
270.65
270.65
270.617
270.65
332.263
267.551
270.65
503.692
356.715
270.65
270.65
270.65
270.65
270.65
270.65
767.96
243.13
336.9
666.932
270.65
282.342
270.65
270.65
270.648
270.65
661.282
409.063
270.65
270.65
270.648
333.998
270.65
270.651
270.65
270.65
725.193
700.611
618.772
316.404
254.856
363.725
783.206
421.671
508.852
354.429
270.65
390.53
412.711
270.65
269.666
270.65
242.325
270.65
270.65
715.409
498.506
270.144
239.652
270.65
270.65
291.739
270.65
270.65
270.65
270.65
349.829
270.65
600.924
270.65
270.65
270.65
545.554
270.649
270.653
282.519
270.65
298.685
270.65
331.579
270.65
607.701
259.634
270.487
774.881
267.556
270.65
270.65
372.485
321.411
337.853
270.65
270.65
270.713
484.189
270.652
270.648
270.578
270.65
270.65
270.65
270.65
270.65
267.287
270.65
305.751
746.584
270.65
270.65
423.572
698.903
744.463
270.65
270.65
270.65
270.65
270.65
270.65
895.454
392.197
293.065
261.225
543.813
535.736
270.65
270.654
329.764
270.604
270.65
270.65
787.849
270.649
649.184
270.65
334.019
869.271
302.25
268.159
248.265
270.637
641.173
331.725
270.65
270.644
569.491
270.65
270.65
666.072
270.65
416.285
270.65
270.65
270.663
270.65
270.65
295.111
300.017
514.917
270.65
297.199
267.052
602.887
258.067
270.933
738.024
255.51
270.646
267.238
356.363
329.19
281.368
270.65
745.106
270.65
498.572
593.042
270.65
270.65
270.65
255.384
551.633
250.169
270.65
270.65
745.76
270.65
270.65
270.689
406.186
270.65
744.247
270.65
270.65
276.602
309.728
592.206
251.25
270.649
270.65
270.65
270.65
541.895
270.65
270.65
270.65
270.65
469.824
270.65
270.65
270.65
362.052
533.635
270.65
270.65
288.068
495.838
537.791
257.281
270.278
657.544
448.09
493.078
270.65
669.568
270.65
383.087
270.65
375.346
270.65
270.65
270.65
270.376
313.258
568.01
424.025
270.65
270.65
323.114
270.65
680.024
754.442
270.65
270.65
384.878
243.806
485.776
382.555
270.65
584.875
270.65
270.65
270.65
270.65
270.649
614.474
270.65
494.879
270.65
342.195
535.523
270.65
583.956
714.472
270.65
270.65
270.634
270.65
270.653
270.65
270.65
674.453
270.65
270.65
270.65
270.65
270.65
270.637
270.65
270.65
415.568
239.363
270.65
270.65
270.65
270.65
270.65
270.65
485.174
270.65
270.65
270.649
378.039
270.65
270.65
270.65
270.644
442.699
270.66
270.65
270.65
270.65
235.642
399.281
373.237
270.65
376.456
258.782
776.785
270.65
270.65
270.646
270.65
658.485
397.048
305.391
261.449
262.524
270.65
270.65
270.823
270.648
423.167
381.443
270.65
599.534
270.65
535.726
705.046
334.219
270.65
270.65
454.054
270.65
224.754
263.569
270.65
270.4
345.321
270.65
550.234
582.881
613.346
366.557
270.65
270.65
737.091
270.65
391.97
270.65
270.65
680.892
541.91
270.65
270.65
466.303
270.665
270.65
270.65
740.952
302.084
378.553
270.65
336.771
270.65
270.65
270.65
270.65
270.65
302.759
270.65
270.65
270.65
612.801
543.242
270.65
270.65
270.65
270.65
277.948
633.165
270.65
255.354
418.296
270.65
270.65
270.65
363.418
270.65
527.963
410.513
270.65
492.037
270.65
270.649
271.136
270.65
270.65
267.298
254.858
270.936
295.872
270.643
750.136
232.203
270.65
454.629
440.25
270.65
270.65
530.46
666.755
270.65
270.65
759.609
467.244
249.211
293.68
270.65
270.65
501.149
871.313
226.646
270.645
713.837
270.65
431.05
305.507
270.65
744.186
270.65
504.379
270.65
270.716
270.65
764.937
578.968
587.804
781.525
407.581
416.891
270.65
489.589
270.903
270.65
270.65
270.65
271.877
270.65
270.65
270.65
620.893
741.375
270.648
270.645
549.423
270.65
373.964
480.022
270.65
270.65
236.487
447.215
275.377
525.766
248.198
270.65
533.138
495.898
270.653
270.652
270.65
548.637
278.399
669.94
270.65
315.26
270.65
568.374
270.65
270.65
270.65
270.648
270.657
270.65
270.65
270.65
270.65
270.65
270.65
694.168
270.65
570.816
270.65
270.65
270.65
568.71
270.65
270.954
677.848
270.65
675.311
270.65
523.4
270.65
790.956
270.647
270.65
548.627
270.65
361.478
484.939
592.448
529.45
270.651
385.397
265.465
270.65
512.415
313.262
270.65
270.671
368.416
270.65
270.65
504.696
270.65
376.32
270.65
270.65
525.965
270.65
270.65
891.072
600.822
270.65
270.65
368.198
270.65
386.027
353.522
270.65
290.504
270.65
259.186
270.65
766.318
299.914
270.65
270.65
302.704
270.65
665.305
279.194
270.65
235.354
270.651
605.008
270.651
270.65
270.65
270.65
381.637
282.634
270.65
270.65
234.7
514.11
270.65
270.65
423.745
258.99
251.041
388.279
270.65
270.65
375.301
270.65
270.65
715.145
270.65
270.656
639.968
270.65
371.578
270.65
602.256
270.935
390.076
270.649
530.542
660.834
270.651
818.648
389.436
270.65
270.434
270.65
664.977
556.404
271.053
270.65
349.331
270.65
331.474
270.65
270.685
753.148
270.65
270.65
270.65
270.65
512.059
270.65
246.786
324.79
270.65
270.65
352.714
270.65
270.65
270.614
270.65
351.782
498.739
270.65
721.407
270.65
470.518
227.185
270.65
270.648
270.65
270.65
304.366
567.766
336.84
270.65
270.768
270.65
270.65
270.65
270.65
540.782
858.683
270.65
539.704
313.135
595.033
270.65
270.65
390.937
270.65
554.228
270.903
270.65
277.216
481.411
774.306
420.357
314.553
270.65
326.325
270.65
614.507
270.65
270.65
270.65
435.341
270.651
270.652
518.375
270.65
270.652
245.308
347.926
270.65
590.927
348.47
270.65
549.48
524.348
270.65
240.831
270.65
270.65
514.441
240.926
270.65
322.36
270.65
361.172
642.346
270.65
363.095
270.65
351.834
270.65
270.65
880.084
683.675
315.109
702.851
270.65
346.878
270.65
270.831
270.65
270.65
408.419
402.686
344.876
270.65
517.445
325.634
397.111
441.697
530.414
474.5
276.581
270.65
270.65
270.65
270.65
270.65
673.131
270.65
525.317
271.107
295.22
706.532
350.727
270.649
270.65
270.65
255.4
270.65
767.312
643.587
674.998
357.013
270.65
597.276
270.648
470.158
526.484
621.849
270.65
270.65
545.962
595.728
725.106
570.377
270.65
270.65
270.65
404.801
668.057
779.104
270.65
270.65
410.811
297.725
418.424
270.65
270.65
270.65
335.022
270.65
270.641
270.65
270.65
630.823
270.65
270.65
270.649
270.65
270.65
270.65
270.65
596.844
270.65
270.639
318.542
543.496
692.442
270.65
754.492
270.65
856.429
270.65
270.65
270.65
357.659
270.65
634.103
270.65
283.652
325.692
270.65
270.65
277.806
500.871
336.045
270.65
259.64
281.408
270.651
270.65
376.213
537.115
306.213
270.65
815.469
275.385
270.65
270.65
347.46
270.65
270.65
393.384
296.325
270.646
270.655
697.155
276.231
553.659
270.65
683.822
270.727
270.65
447.765
270.65
234.588
270.65
270.65
270.65
270.65
511.277
270.65
270.65
270.65
270.65
270.65
270.647
267.332
270.658
485.789
405.731
727.576
327.024
404.561
764.441
270.605
235.977
377.695
352.528
270.65
270.65
270.65
384.412
776.094
444.628
475.166
348.507
834.387
270.65
257.395
291.855
270.65
270.65
283.56
376.559
239.13
538.727
442.167
753.215
782.38
270.65
729.376
651.155
270.417
502.659
268.724
270.65
270.678
337.336
270.65
270.65
487.864
339.049
318.162
449.714
270.65
700.934
270.65
270.65
270.65
316.105
270.65
361.869
270.787
270.65
353.912
294.005
470.317
270.65
306.76
270.65
270.65
447.831
583.494
302.852
441.527
270.65
513.43
270.65
270.637
366.977
320.481
517.013
320.362
323.49
270.65
270.633
320.68
366.578
630.654
322.072
270.65
471.138
617.839
644.886
260.758
725.931
270.65
607.527
270.65
270.804
270.65
270.649
781.274
270.65
270.65
657.968
270.902
270.65
270.65
270.65
270.65
270.65
270.65
270.65
270.65
270.65
270.65
270.65
270.654
581.031
867.021
270.65
270.65
271.315
333.469
321.428
270.65
695.412
285.139
407.68
270.65
461.439
406.178
270.65
411.453
262.902
270.65
608.746
270.65
270.65
270.65
694.281
397.895
411.538
270.65
425.804
270.649
270.65
270.65
270.65
270.65
643.35
290.424
257.549
270.65
533.036
270.65
270.65
259.999
726.245
270.649
387.663
270.65
669.996
404.099
408.754
270.65
270.65
272.233
296.226
412.468
270.65
313.033
240.068
827.301
270.65
270.65
684.147
545.617
270.65
270.65
235.688
389.848
405.29
253.027
476.637
270.65
634.81
270.65
270.64
270.65
270.451
270.65
614.032
270.6
320.414
376.264
270.65
270.65
376.537
619.348
270.65
270.65
250.623
511.409
391.411
494.364
272.383
270.65
556.58
654.191
647.507
270.65
276.304
270.65
749.03
270.649
611.692
263.453
797.982
270.65
598.381
344.637
271.454
270.731
382.145
270.65
270.65
270.65
270.348
790.521
270.65
388.802
698.323
270.65
270.65
270.651
270.65
314.71
422.633
298.147
270.65
270.65
270.65
643.792
259.89
270.65
273.071
270.65
779.663
270.65
472.949
711.13
270.65
270.65
270.65
270.65
270.65
395.047
899.29
532.981
269.944
683.082
390.125
240.381
285.99
351.023
226.663
440.667
270.65
270.65
489.597
474.871
270.646
270.65
545.369
270.65
270.61
270.65
270.65
270.65
253.676
270.65
270.65
270.65
249.57
608.143
223.255
749.186
270.65
270.65
270.65
270.65
270.65
397.65
391.294
270.65
270.65
748.812
280.643
270.65
270.65
293.589
500.215
733.344
467.15
638.483
270.65
270.65
347.395
270.644
270.65
270.314
270.65
741.246
288.199
270.65
468.819
340.187
730.738
317.043
335.414
581.82
396.243
353.78
474.014
270.665
270.659
270.65
270.65
270.65
270.65
270.65
270.65
514.596
270.65
270.65
377.379
270.65
534.654
498.001
270.65
270.65
270.65
270.65
270.653
293.79
532.176
255.318
270.649
270.65
644.215
351.462
501.15
270.65
270.652
270.65
270.65
270.65
272.193
270.65
270.65
241.485
270.65
439.808
819.783
270.664
270.65
270.65
270.65
270.65
270.65
270.658
270.65
270.65
270.65
520.654
317.458
613.51
270.65
579.448
270.65
270.65
569.061
270.648
270.65
459.397
388.092
378.063
320.684
270.65
371.845
647.186
270.65
270.65
483.637
270.65
270.647
270.651
512.369
270.65
841.056
270.65
270.65
270.65
270.65
654.135
270.65
400.524
270.65
270.65
384.635
307.036
390.568
403.476
252.042
318.661
357.46
270.65
480.419
320.585
270.65
270.65
270.65
624.829
262.502
270.65
270.65
750.503
427.064
413.46
270.65
268.179
624.016
424.785
270.65
391.814
270.65
271.034
270.652
381.613
269.656
265.799
270.65
347.747
265.582
779.978
270.65
346.248
270.65
270.65
389.738
270.897
475.423
270.65
270.52
270.65
270.65
270.65
383.44
417.379
485.416
376.347
631.462
270.65
252.796
554.18
270.65
580.612
270.648
270.65
270.65
394.934
400.018
270.65
350.863
350.656
270.65
624.731
270.65
441.512
511.463
270.65
270.65
270.65
270.65
270.65
270.65
406.534
381.852
270.65
749.549
270.65
266.435
421.334
577.129
270.637
549.287
270.65
270.65
728.705
270.649
270.65
264.065
270.65
316.122
270.65
270.65
419.843
270.65
708.125
270.65
270.65
758.828
270.65
270.65
270.65
318.487
415.699
488.923
529.571
270.65
292.638
270.65
648.237
354.358
253.723
270.65
395.165
270.755
270.65
735.647
270.65
619.206
300.05
270.65
529.683
270.65
270.65
294.94
270.65
270.65
644.605
270.668
308.359
270.65
270.65
270.65
270.671
270.65
283.841
270.65
270.65
413.993
270.65
344.268
396.71
343.405
397.464
270.65
809.279
354.659
270.65
270.65
652.637
318.523
270.666
305.38
520.104
278.35
609.925
270.626
278.984
270.65
255.804
401.087
270.65
634.383
505.961
270.65
499.853
270.65
270.651
452.334
270.65
509.989
452.333
270.65
270.65
410.967
299.669
270.649
270.65
270.65
837.663
270.65
631.581
270.632
406.449
270.65
270.65
234.824
514.758
270.65
282.354
270.65
270.65
430.514
270.687
270.65
313.422
513.992
240.39
371.128
270.65
307.127
270.65
270.65
270.65
270.65
436.88
568.092
270.65
513.682
270.65
270.65
262.147
270.65
376.241
270.653
270.65
256.055
767.34
561.631
270.65
564.248
270.65
314.104
270.65
345.984
270.65
623.351
270.612
284.803
373.952
270.65
510.545
369.596
270.65
300.203
270.651
771.607
270.65
375.238
272.039
424.803
361.956
656.618
352.387
270.65
270.95
270.65
270.645
299.448
270.65
270.26
433.407
270.65
270.65
308.473
350.651
270.65
270.65
270.65
270.716
455.951
278.855
346.96
743.766
440.064
684.407
369.942
270.65
270.65
364.718
270.65
270.65
270.65
270.65
678.243
518.707
507.322
270.65
785.444
270.65
406.046
451.055
668.78
270.65
270.65
270.65
392.227
494.724
610.688
438.477
328.683
507.563
270.65
482.277
270.65
270.65
440.995
270.65
336.076
409.604
270.65
270.65
374.282
506.262
233.593
270.65
270.65
270.65
371.299
258.032
759.314
270.843
241.722
442.966
268.611
270.65
383.366
269.058
270.659
270.65
270.781
241.957
393.67
539.845
450.517
270.65
267.602
270.65
270.65
492.218
270.65
270.65
270.65
624.411
270.65
316.733
270.65
270.65
270.65
222.48
358.703
270.65
270.65
270.648
270.65
799.701
270.647
270.65
270.65
628.66
694.079
270.65
785.701
270.65
260.663
224.925
270.65
270.65
400.314
319.365
270.65
271.149
270.65
473.907
576.775
688.643
288.312
733.309
270.65
311.293
270.65
270.65
602.8
270.65
695.526
467.734
270.65
273.32
270.65
395.446
270.488
270.65
270.65
556.478
336.562
270.65
270.655
406.965
270.65
270.654
462.165
270.65
270.65
270.65
270.65
501.354
729.781
270.65
270.65
475.299
270.65
313.403
335.61
432.75
270.65
469.401
270.65
270.65
270.382
555.744
270.65
245.639
273.794
393.822
270.649
270.65
434.725
660.112
322.508
515.768
270.65
252.925
444.062
270.65
368.017
449.912
747.309
270.65
270.65
270.65
478.721
270.652
270.65
354.389
270.65
608.186
270.65
583.228
270.65
270.65
667.936
270.65
859.094
270.65
302.955
270.482
270.641
514.861
270.65
272.193
272.791
270.65
622.689
270.823
347.433
270.65
783.003
698.336
497.702
251.883
641.532
233.563
270.65
506.183
270.65
270.65
283.506
282.033
411.731
515.603
654.64
522.504
330.918
270.65
270.65
270.65
270.65
572.166
270.65
547.85
291.604
270.65
305.463
627.574
378.233
291.427
270.65
270.65
484.077
270.65
270.65
370.646
270.65
503.216
275.996
270.649
270.65
719.492
398.425
270.65
270.65
529.234
345.678
270.65
398.047
370.664
757.562
270.65
410.734
758.356
328.903
458.632
898.77
270.65
741.118
488.383
270.65
669.248
435.128
686.643
270.65
395.324
708.47
318.991
270.65
270.65
270.889
270.65
671.311
270.65
350.189
263.803
270.65
270.65
270.65
270.65
270.65
261.422
270.65
270.656
248.123
237.156
274.767
303.379
270.65
409.761
270.65
751.715
243.353
270.65
248.988
270.65
363.598
376.852
718.473
270.65
637.07
360.977
355.299
734.294
406.506
449.06
270.707
270.65
616.792
383.515
744.67
270.65
688.475
380.961
270.65
365.896
270.287
266.589
402.927
431.741
270.65
270.65
561.729
270.65
792.527
270.65
270.65
260.521
270.65
265.663
697.605
561.913
321.419
270.65
712.702
270.65
252.498
270.65
395.474
270.65
564.897
270.65
502.742
502.548
519.437
270.65
270.65
548.122
270.619
270.65
269.767
270.65
270.65
293.505
270.65
270.667
270.65
458.378
270.65
355.172
301.133
265.407
270.65
270.65
503.17
682.623
270.65
349.627
270.65
252.345
481.401
270.65
702.031
312.997
522.529
808.756
270.65
270.65
270.65
270.65
467.104
270.65
394.862
313.276
270.65
270.65
270.65
270.65
270.649
270.65
386.842
269.878
584.457
270.65
270.65
270.65
844.436
898.165
270.65
270.65
561.105
613.351
627.012
406.681
514.684
270.65
588.448
270.65
477.69
288.667
376.907
588.424
270.65
270.65
312.15
351.43
538.141
758.096
270.65
270.65
270.65
753.241
522.573
311.71
270.65
254.846
270.65
280.647
722.931
270.673
270.65
270.65
564.75
250.839
270.65
287.08
402.978
349.199
270.65
677.076
679.876
330.208
270.65
282.969
270.65
270.65
270.65
364.305
270.65
270.65
664.688
263.047
270.65
270.65
270.65
619.863
270.648
697.219
270.65
270.65
365.676
270.65
270.65
270.65
270.625
271.058
416.009
270.65
270.648
290.574
270.65
270.686
380.442
337.154
270.65
270.65
710.941
270.651
389.547
270.65
270.65
270.65
659.454
270.65
275.926
618.586
816.276
270.65
359.519
720.654
277.852
631.151
272.194
270.65
379.627
267.115
270.65
270.65
335.202
270.65
669.374
270.65
360.783
270.65
398.902
716.865
270.65
629.388
270.65
260.754
270.65
596.31
270.65
730.077
709.793
270.65
470.532
672.906
270.65
270.65
270.65
602.79
480.202
270.65
648.064
270.65
270.65
270.65
270.649
762.472
270.65
617.677
270.65
270.65
270.65
759.074
270.65
385.246
270.65
245.266
270.649
489.828
399.33
270.267
600.492
333.486
270.65
336.401
270.65
555.479
270.65
367.892
235.471
401.226
270.65
270.65
270.65
388.726
752.34
270.65
270.65
270.65
270.65
571.222
270.65
270.651
270.717
270.65
270.65
738.342
344.605
270.65
270.65
586.424
322.614
270.65
340.322
270.758
270.65
270.65
766.738
437.214
704.31
270.65
270.65
270.65
723.481
500.803
640.425
270.647
358.997
279.389
627.608
515.529
583.847
270.65
270.65
427.949
270.65
270.666
270.648
270.65
481.098
257.685
888.461
270.675
270.628
236.654
270.711
661.104
762.244
270.65
270.65
516.068
270.65
270.65
708.79
270.65
270.65
270.65
282.497
386.594
533.433
270.65
270.65
431.048
446
270.65
267.3
270.65
270.65
487.34
390.222
270.65
465.804
500.976
541.315
315.068
580.504
373.268
270.65
270.65
498.164
270.65
725.813
456.56
270.65
424.297
266.047
738.091
270.65
297.679
476.279
270.65
772.497
517.235
269.983
270.65
734.977
670.412
241.539
270.65
581.263
279.161
564.049
842.688
270.65
426.163
575.024
721.183
270.652
283.039
270.65
389.638
270.65
270.65
270.65
509.865
270.65
270.65
254.597
519.406
697.149
615.983
767.552
386.174
543.895
270.65
240.583
270.65
270.715
270.65
547.415
282.374
366.415
369.369
270.576
270.65
270.65
270.541
270.66
282.98
270.65
270.65
572.849
270.65
693.37
270.65
270.649
270.65
402.917
270.65
891.445
605.347
270.65
315.361
270.649
270.623
296.88
270.65
270.65
270.65
270.65
315.489
270.65
315.091
366.027
361.289
270.65
270.65
393.805
270.65
270.65
270.65
270.65
270.65
388.325
577.545
270.65
270.65
266.62
326.162
270.65
677.114
270.65
270.65
393.31
397.797
270.65
270.65
270.65
729.383
270.647
270.65
270.651
270.65
705.428
270.65
241.66
270.65
430.109
401.722
270.65
268.934
314.691
813.064
659.074
326.83
236.623
270.65
747.016
270.65
270.65
270.65
393.643
350.126
270.705
718.794
270.65
668.291
514.578
270.65
274.744
357.764
270.65
270.65
270.659
269.944
623.001
270.65
266.336
270.65
521.353
270.65
793.096
436.706
270.65
270.65
270.649
509.821
270.65
353.263
557.787
270.65
424.553
514.164
359.187
228.492
270.65
431.682
506.413
270.655
428.743
368.275
270.65
653.555
672.731
270.65
270.65
270.656
447.755
270.65
270.65
408.48
515.95
447.361
451.094
608.404
434.095
270.648
270.65
635.686
689.131
270.65
270.65
270.65
616.965
301.411
270.65
758.456
575.237
270.65
270.65
270.65
272.084
270.65
501.385
270.65
270.65
393.033
271.919
390.517
391.121
345.537
270.65
270.628
428.885
264.91
530.68
714.391
331.066
428.516
765.366
253.742
270.731
270.65
270.65
759.26
425.881
273.257
603.061
269.835
488.201
270.65
270.65
701.992
270.65
270.65
682.925
270.648
270.65
820.591
379.508
270.65
270.649
692.625
686.604
270.65
573.537
270.65
753.934
731.79
720.668
270.65
551.485
270.65
412.321
270.65
270.65
270.65
270.65
270.65
703.234
270.65
270.65
327.853
270.65
372.692
371.158
297.108
270.65
265.466
365.391
312.867
700.606
270.646
257.312
402.462
270.65
465.165
270.65
721.461
534.267
270.65
270.75
316.845
520.916
355.951
237.461
270.65
442.651
691.094
315.151
407.352
270.78
249.018
270.65
315.941
353.649
473.778
813.129
270.69
270.65
270.65
711.01
477.407
270.65
724.613
270.65
581.287
270.65
249.796
270.65
430.784
776.769
270.65
608.711
369.404
700.228
270.65
749.801
270.654
496.194
270.65
389.412
270.65
270.65
270.65
627.936
270.341
270.65
390.009
683.743
270.65
244.343
429.141
262.603
270.65
270.65
242.976
270.65
658.801
770.905
433.505
291.481
486.998
297.546
765.227
417.966
270.65
261.282
678.882
527.506
270.666
270.65
270.739
270.657
356.268
398.295
603.37
270.65
524.127
493.347
295.837
330.565
270.644
765.484
394.648
495.005
270.674
748.18
744.798
270.65
580.524
270.65
492.848
270.65
270.65
645.629
291.94
759.569
270.65
327.014
565.954
789.417
270.665
251.477
270.65
399.957
270.65
256.998
251.295
270.65
762.391
416.575
270.65
270.65
554.151
270.65
270.65
270.75
270.65
270.65
270.65
270.65
270.65
491
245.626
270.65
270.651
270.65
337.256
270.65
696.724
270.65
262.241
270.65
349.982
371.314
270.65
270.65
270.65
270.65
796.244
270.65
303.32
765.822
270.65
270.647
392.569
588.744
343.811
763.012
270.65
354.081
642.254
694.489
836.326
270.65
523.665
392.4
270.65
370.558
688.676
717.464
270.65
747.746
489.293
270.65
660.479
270.65
591.293
270.65
695.281
423.56
842.332
270.65
606.86
270.65
270.65
639.89
606.725
270.647
365.17
403.116
723.828
253.462
412.572
270.65
563.853
270.65
700.691
360.509
270.65
495.285
654.418
514.639
573.678
689.721
547.4
477.423
549.328
298.805
317.786
270.65
271.023
388.706
305.239
270.65
678.151
394.944
364.764
270.65
656.63
715.971
344.607
334.448
321.307
270.645
656.942
270.65
565.619
270.65
270.65
515.968
270.65
261.793
407.009
270.65
270.65
650.272
385.869
305.254
360.223
654.003
326.993
424.645
552.335
271.266
397.236
358.515
270.65
270.651
270.651
370.911
270.65
778.452
318.648
270.65
283.902
270.65
398.291
638.127
351.539
276.628
270.65
270.65
753.957
692.313
705.309
270.65
534.198
270.65
706.813
373.461
270.65
269.236
762.795
430.587
336.154
270.65
383.396
390.573
561.664
270.65
263.654
451.312
270.65
270.65
541.577
270.65
270.65
306.99
372.46
698.944
604.216
342.701
270.65
570.209
413.163
623.341
270.65
283.41
438.514
373.387
270.65
584.241
355.241
270.65
270.65
267.225
755.53
270.65
270.65
315.769
659.249
270.65
270.65
270.65
386.583
716.406
378.362
592.719
270.65
553.108
270.65
733.832
423.439
465.658
270.65
616.044
482.888
270.65
225.075
262.548
790.888
270.65
748.229
429.008
505.358
587.945
697.354
702.954
270.65
270.711
270.647
381.869
714.703
750.414
404.858
263.101
515.811
399.75
659.642
366.608
401.084
270.649
891.45
270.65
427.303
395.534
450.016
270.65
343.39
579.791
270.652
710.405
270.65
270.65
589.262
688.921
270.65
270.621
270.65
270.65
304.767
348.12
405.469
415.424
531.169
270.65
270.65
270.65
270.65
696.163
270.65
270.65
413.602
270.65
416.838
269.66
751.043
270.65
270.65
570.717
387.491
270.65
384.15
477.319
270.65
293.602
454.615
272.413
616.218
267.676
358.702
442.094
726.611
270.649
270.664
270.65
541.987
270.65
404.203
429.353
724.839
268.551
339.538
560.789
670.429
652.611
270.65
291.601
401.02
463.28
424.893
270.65
528.444
378.343
384.933
450.868
487.523
270.65
700.047
826.118
270.65
409.145
271.464
270.65
270.65
642.238
467.712
270.65
539.429
708.462
572.087
270.65
270.65
260.583
560.643
556.382
270.65
391.949
320.687
270.65
462.733
272.279
634.675
270.65
327.353
262.654
270.65
270.65
337.836
270.65
346.867
423.308
270.65
249.715
586.861
270.47
650.875
255.41
270.65
270.65
270.65
270.583
715.216
269.274
270.65
762.35
286.161
270.65
726.713
590.644
273.754
270.65
795.346
293.348
613.617
270.65
591.372
270.65
619.927
690.475
264.758
402.862
491.085
270.594
270.65
315.507
349.595
270.65
270.65
270.65
270.65
270.65
270.65
380.556
517.383
270.65
276.508
397.785
270.65
776.555
676.714
667.1
270.651
270.65
270.65
773.949
323.877
574.628
270.65
324.563
238.579
633.804
427.47
270.65
270.65
270.65
270.65
397.397
270.652
587.001
689.801
236.07
270.65
270.65
407.993
270.65
270.65
270.65
528.127
538.643
270.65
539.181
646.785
590.636
392.917
288.124
270.65
463.35
427.537
270.65
574.276
270.65
380.42
405.806
349.096
270.65
566.087
270.65
598.588
270.65
314.612
608.353
528.516
541.592
270.648
779.78
470.242
416.101
539.907
447.133
270.65
370.214
590.126
694.13
320.55
702.264
270.65
270.648
232.176
394.129
301.389
396.322
342.724
270.65
705.339
758.106
270.65
589.873
478.705
371.052
468.931
737.847
270.651
270.65
270.65
267.63
271.986
270.65
270.65
497.999
615.945
365.028
301.106
466.308
725.582
270.65
270.641
438.263
755.601
455.507
270.683
456.806
318.051
270.65
595.34
376.972
312.792
270.65
270.65
709.05
342.132
270.65
269.917
681.289
270.65
754.712
727.429
270.65
356.334
270.65
270.853
270.65
583.844
273.697
656.021
711.041
270.65
267.443
612.901
532.893
385.865
545.872
549.783
625.48
320.754
304.275
287.318
382.957
270.65
270.65
270.65
270.65
569.135
543.287
515.113
270.65
415.039
270.65
270.65
562.273
748.012
533.194
588.219
582.228
270.652
623.429
378.824
270.65
270.65
270.65
462.959
270.65
270.65
424.202
270.65
481.42
270.65
270.65
413.59
270.65
572.188
372.271
522.434
753.398
311.032
270.65
357.897
304.207
372.89
651.197
270.65
572.693
604.126
385.398
598.649
308.524
304.939
270.65
356.274
603.064
647.411
264.565
431.45
322.751
382.327
390.016
480.088
281.075
716.528
270.3
270.65
270.65
270.65
246.798
475.023
270.65
270.65
270.65
352.645
270.65
270.65
565.234
516.231
270.649
704.025
284.059
361.031
306.638
458.35
578.123
539.545
270.65
270.656
607.738
402.516
270.65
270.65
269.482
345.77
357.487
471.54
531.557
270.65
406.915
270.65
454.272
270.65
270.65
356.002
683.996
597.182
787.961
283.611
270.65
359.122
350.466
577.882
301.319
270.65
270.65
478.382
270.65
626.739
593.224
270.65
594.903
626.1
279.656
291.386
288.023
273.636
391.79
270.65
351.606
270.65
270.65
270.65
270.65
270.65
270.65
688.205
270.65
270.65
472.746
270.65
270.65
270.65
270.65
465.222
401.18
248.218
495.735
267.796
484.86
270.65
608.996
270.65
314.947
270.65
270.65
542.829
270.663
270.65
607.484
541.38
576.873
649.872
270.837
270.65
627.713
443.319
479.272
270.65
671.4
301.422
388.642
449.934
270.65
523.562
244.71
604.552
270.65
720.335
270.65
257.08
270.65
270.65
270.65
420.403
381.417
526.593
756.087
270.65
701.132
484.899
270.65
270.65
311.824
589.595
343.241
270.65
270.65
370.777
263.017
270.65
473.806
541.312
270.649
270.65
270.65
401.18
584.364
371.653
649.402
529.824
270.65
674.746
695.416
770.96
270.65
356.339
313.688
294.842
270.65
568.548
688.579
270.65
650.982
255.853
741.498
270.65
448.908
533.415
374.818
270.65
601.905
331.749
770.281
404.438
387.207
270.65
302.384
270.65
258.683
506.317
304.583
697.506
270.65
319.92
263.623
663.15
317.461
270.65
251.857
435.666
665.118
481.355
694.013
710.89
323.369
487.72
270.65
270.65
509.278
436.276
371.007
690.449
270.65
270.65
270.65
664.468
502.62
270.65
270.651
270.65
322.038
320.714
322.429
268.81
270.65
378.119
270.65
425.667
507.754
316.526
654.304
425.632
270.65
427.875
466.419
347.401
270.65
270.65
646.92
270.65
547.968
314.745
311.071
575.607
257.65
410.383
575.02
398.821
312.153
261.716
341.239
270.65
270.65
326.245
409.432
617.203
422.234
380.035
611.969
270.65
270.65
414.575
319.413
270.604
294.389
270.65
480.578
376.748
532.973
731.345
270.177
605.033
452.449
318.148
286.251
270.65
477.122
652.722
582.366
658.465
434.649
345.964
270.65
453.348
270.65
543.43
659.58
270.637
422.319
681.694
270.65
245.882
270.65
339.331
261.708
547.748
573.482
270.65
536.317
802.319
770.417
270.65
365.581
270.65
570.256
334.695
270.65
657.913
722.571
745.651
499.913
579.495
660.948
678.871
579.606
266.572
270.65
305.857
764.993
353.966
288.2
236.898
270.65
270.65
504.036
270.65
270.65
410.544
270.65
270.65
563.553
558.919
275.996
497.39
270.65
534.723
270.65
270.65
355.286
262.151
270.65
399.318
374.471
275.016
293.002
484.768
660.756
268.718
465.811
484.554
448.92
726.803
270.65
437.005
470.986
494.473
270.65
372.08
270.65
338.319
449.678
398.852
344.466
480.698
647.387
440.26
332.559
338.286
869.628
386.672
589.807
514.295
305.497
270.65
490.54
453.266
270.642
438.535
387.177
270.65
270.65
406.576
270.65
479.412
762.291
588.361
270.65
616.958
270.65
467.433
601.572
270.65
360.448
399.278
270.65
487.85
272.572
270.68
486.514
394.496
271.259
697.089
270.65
270.65
270.65
580.551
385.356
270.65
270.65
270.65
626.681
482.718
502.27
596.946
324.329
270.65
464.419
365.759
341.073
386.719
487.101
330.135
270.65
270.65
681.601
270.826
374.461
270.65
761.404
433.142
270.65
388.036
270.65
530.314
397.267
270.65
250.94
484.906
495.912
270.65
505.45
489.396
392.112
239.597
486.991
403.992
414.685
270.651
248.9
270.65
378.721
424.425
270.65
341.882
456.263
484.187
471.801
270.65
548.153
649.662
385.261
634.749
406.693
387.07
306.186
270.65
448.243
582.143
651.997
419.957
408.384
665.202
538.497
314.906
411.115
716.343
519.67
379.436
254.766
601.371
531.621
461.9
270.65
419.421
647.58
811.84
312.03
536.028
270.94
270.65
623.347
270.386
270.65
270.65
733.992
270.65
418.885
629.127
270.65
270.65
467.177
270.65
395.757
294.958
414.701
516.352
270.65
683.38
383.628
315.969
405.864
578.514
270.647
401.418
656.218
422.778
590.904
270.65
569.803
270.65
568.554
428.019
516.773
270.65
399.982
395.068
335.217
407.912
425.657
270.65
270.666
282.698
303.276
512.381
270.65
350.406
308.627
600.971
316.027
270.65
270.65
331.918
244.589
270.65
270.65
405.97
518.146
270.651
270.65
415.661
270.71
270.65
270.65
646.804
270.65
609.494
420.358
270.65
281.014
677.358
270.65
282.681
270.65
446.143
595.285
270.652
427.068
454.896
786.086
632.793
343.558
270.649
622.65