/*--------------------------------*- C++ -*----------------------------------*\
| =========                 |                                                 |
| \\      /  F ield         | OpenFOAM: The Open Source CFD Toolbox           |
|  \\    /   O peration     | Version:  2406                                  |
|   \\  /    A nd           | Website:  www.openfoam.com                      |
|    \\/     M anipulation  |                                                 |
\*---------------------------------------------------------------------------*/
FoamFile
{
    version     2.0;
    format      ascii;
    arch        "LSB;label=32;scalar=64";
    class       volVectorField;
    location    "0.0006000075829";
    object      U;
}
// * * * * * * * * * * * * * * * * * * * * * * * * * * * * * * * * * * * * * //

dimensions      [0 1 -1 0 0 0 0];

internalField   nonuniform List<vector> 
17141
(
(990 1.46356e-09 0)
(990 -5.18476e-08 0)
(990 -2.13589e-08 0)
(990.034 0.0277724 0)
(990 3.43595e-10 0)
(989.989 0.0344638 0)
(990.074 -0.129341 0)
(830.485 143.084 0)
(990 0.000316654 0)
(989.996 6.86834e-05 0)
(990 4.71378e-12 0)
(990 -3.16243e-12 0)
(400.773 -308.115 0)
(990 -2.68943e-08 0)
(1045.1 -333.57 0)
(990.001 -0.00262994 0)
(990 7.19037e-10 0)
(987.482 -0.250026 0)
(486.219 -173.591 0)
(951.558 -8.58772 0)
(990 -3.37343e-07 0)
(990 -7.68884e-12 0)
(980.079 218.15 0)
(1059.35 204.649 0)
(990 -1.69871e-07 0)
(990 2.15306e-11 0)
(990 5.3127e-06 0)
(990 9.23936e-10 0)
(867.627 -241.636 0)
(988.743 85.1756 0)
(989.993 -0.0438766 0)
(990 -7.29655e-10 0)
(990 1.09363e-09 0)
(989.847 -0.0846466 0)
(736.107 252.022 0)
(1008.2 51.2357 0)
(990 1.56129e-12 0)
(1017.75 97.8236 0)
(990 6.52521e-12 0)
(990.001 -0.00284555 0)
(1057.25 184.8 0)
(1020.93 87.5081 0)
(990 0.000189886 0)
(68.257 -54.9931 0)
(881.603 224.908 0)
(990 0.000260917 0)
(744.363 340.911 0)
(1013.63 70.2348 0)
(990 1.54968e-08 0)
(990 -1.71147e-05 0)
(990 -2.66697e-06 0)
(990 -9.96507e-09 0)
(996.525 204.29 0)
(1054.03 -16.9763 0)
(990 4.97284e-06 0)
(900.659 -283.753 0)
(990.001 -0.0219067 0)
(990 -2.76846e-07 0)
(754.459 333.244 0)
(1021.94 21.5096 0)
(945.744 538.868 0)
(990 -2.20385e-05 0)
(915.983 -35.9358 0)
(990 1.42225e-11 0)
(984.876 1.27434 0)
(990.001 0.00160405 0)
(990 -3.73227e-10 0)
(990.001 0.000671257 0)
(989.998 0.00160103 0)
(990 -1.5002e-08 0)
(1075.42 390.828 0)
(285.858 -254.472 0)
(989.999 6.5098e-06 0)
(990 -2.44546e-11 0)
(990 5.10314e-12 0)
(990 9.56137e-10 0)
(990 3.07261e-12 0)
(1026.18 108.556 0)
(340.153 262.846 0)
(990 -6.26067e-08 0)
(990 3.87281e-12 0)
(1000.54 39.1446 0)
(989.841 -0.794812 0)
(990 -1.45128e-11 0)
(990 -6.69918e-08 0)
(395.226 -316.027 0)
(990 1.06135e-07 0)
(994.897 107.815 0)
(990 -2.59403e-05 0)
(990 9.52476e-12 0)
(990 -1.80173e-13 0)
(989.986 0.105295 0)
(1059.71 -307.344 0)
(1062.37 -194.988 0)
(990.003 0.00451279 0)
(990 -5.89235e-08 0)
(990 -0.000519602 0)
(990 -1.18916e-08 0)
(982.56 216.535 0)
(990 5.37689e-05 0)
(990 -4.5045e-09 0)
(989.988 0.0457484 0)
(990 1.10878e-11 0)
(990 3.31815e-11 0)
(990 -6.25208e-08 0)
(75.0359 -80.2106 0)
(990 -4.68206e-08 0)
(675.912 339.644 0)
(990 -1.67057e-12 0)
(990 3.41763e-12 0)
(852.915 -137.889 0)
(899.399 -288.865 0)
(1001.98 11.7838 0)
(990.001 -0.00112372 0)
(990 -8.03377e-10 0)
(1063.53 221.59 0)
(990 0.000124523 0)
(990 1.69567e-05 0)
(990 0.000221003 0)
(989.48 3.12512 0)
(1038.74 -10.7521 0)
(990 1.6533e-10 0)
(990 -8.86547e-06 0)
(990 -3.47413e-05 0)
(990.192 -1.98483 0)
(962.141 -226.124 0)
(990.47 0.270614 0)
(1049.82 -164.05 0)
(990 7.86129e-10 0)
(990 -0.000106007 0)
(989.997 -0.00179881 0)
(990 -5.35678e-12 0)
(1006.28 -108.013 0)
(990 1.64584e-12 0)
(612.187 15.4203 0)
(881.611 551.561 0)
(808.642 164.062 0)
(975.391 -67.2364 0)
(990 -0.000959319 0)
(782.501 177.368 0)
(993.679 205.161 0)
(990 -3.31202e-06 0)
(990 -5.04634e-08 0)
(982.04 -3.14242 0)
(300.956 -315.943 0)
(990 -4.12833e-10 0)
(161.44 239.299 0)
(990 -8.13492e-06 0)
(871.841 -231.749 0)
(990 -5.12974e-12 0)
(1063.83 -212.181 0)
(992.783 -8.3378 0)
(295.295 -257.416 0)
(1066.24 258.902 0)
(990 -3.86344e-05 0)
(990 2.02639e-09 0)
(990 -5.9798e-12 0)
(1051.36 -172.397 0)
(990 -1.97251e-11 0)
(990 -3.30589e-07 0)
(990 -4.3657e-09 0)
(990.023 0.107948 0)
(990 -1.89954e-05 0)
(1009.75 -168.036 0)
(989.205 1.89082 0)
(990 -3.18883e-07 0)
(739.401 253.034 0)
(962.586 216.643 0)
(990 1.23126e-11 0)
(990 7.27079e-07 0)
(990 4.77858e-07 0)
(990 -4.55536e-08 0)
(990 -5.85497e-09 0)
(990 2.32359e-08 0)
(189.467 267.045 0)
(1071.47 343.466 0)
(1011.32 167.273 0)
(409.787 -320.927 0)
(990 -0.000220406 0)
(1055.01 -348.189 0)
(990 1.64181e-08 0)
(990 1.14516e-09 0)
(990.002 -0.00568596 0)
(990 5.2391e-08 0)
(417.471 -319.55 0)
(908.56 107.081 0)
(990 6.50817e-11 0)
(990 1.62177e-10 0)
(990.009 0.0049642 0)
(971.571 145.639 0)
(990 6.9371e-12 0)
(989.998 -0.00271675 0)
(990 5.7336e-08 0)
(990 3.13304e-06 0)
(312.877 -322.05 0)
(339.519 -169.748 0)
(506.037 -315.614 0)
(1030.43 -125.988 0)
(1019.88 -17.6181 0)
(580.124 7.03108 0)
(369.32 -250.204 0)
(995.659 23.7286 0)
(679.015 363.6 0)
(966.301 211.961 0)
(989.997 -0.000900099 0)
(934.407 80.184 0)
(900.276 120.206 0)
(990 7.8708e-07 0)
(1058.79 37.9062 0)
(990 6.34279e-07 0)
(1083.59 379.021 0)
(990 -0.00052509 0)
(990 -0.000655203 0)
(289.902 92.0741 0)
(780.298 191.697 0)
(990.431 1.93941 0)
(1068.61 343.778 0)
(990 -0.000149388 0)
(990 -4.7175e-05 0)
(1059.86 210.047 0)
(990 2.97095e-11 0)
(990 -3.51982e-08 0)
(990 2.4509e-09 0)
(990 -4.49804e-05 0)
(953.316 -196.992 0)
(990 -0.000254854 0)
(791.314 -69.1745 0)
(990 1.60798e-07 0)
(990 -3.09617e-06 0)
(990 0.000113244 0)
(626.685 -333.46 0)
(989.997 -0.0030887 0)
(989.959 0.0112138 0)
(1057.97 -325.672 0)
(990 -8.22246e-12 0)
(1053.63 173.39 0)
(990 0.000583012 0)
(1008.96 46.6587 0)
(990 3.21773e-06 0)
(782.281 -39.0358 0)
(1042.04 73.5529 0)
(989.952 -0.259034 0)
(174.961 266.275 0)
(990.225 -5.26182 0)
(990 -0.000122121 0)
(990 -1.24684e-05 0)
(951.429 -53.6592 0)
(922.041 92.8328 0)
(1001.23 43.3593 0)
(990 -1.22972e-08 0)
(990 3.01035e-08 0)
(990.132 0.0353288 0)
(836.337 -130.876 0)
(990.001 -0.00162686 0)
(990.001 0.00682741 0)
(990.919 0.090072 0)
(990 -0.000271754 0)
(990 -1.94583e-11 0)
(990 -0.000965201 0)
(990 -5.92167e-12 0)
(990 8.19069e-10 0)
(972.962 -5.81352 0)
(990 -4.47077e-08 0)
(1021.02 81.56 0)
(238.238 -289.999 0)
(990 0.000190922 0)
(990.001 -0.00144754 0)
(913.11 30.0057 0)
(334.746 262.89 0)
(253.328 296.399 0)
(990 -5.34511e-10 0)
(990 4.95165e-05 0)
(990 4.75009e-05 0)
(990 5.3266e-12 0)
(990 -3.54118e-09 0)
(990.001 -0.0029216 0)
(-97.5647 13.9702 0)
(928.286 104.211 0)
(1049.95 -209.607 0)
(1027.73 -23.462 0)
(663.522 -278.082 0)
(659.265 -316.282 0)
(990 1.20954e-06 0)
(989.993 -0.00577286 0)
(1019.18 194.431 0)
(990.077 -0.062345 0)
(990 -2.90946e-05 0)
(990 5.26552e-09 0)
(115.085 198.399 0)
(990.001 -0.00148183 0)
(648.297 -416.369 0)
(990 7.42765e-10 0)
(1007.01 -172.55 0)
(167.735 72.4875 0)
(1024.19 69.427 0)
(992.882 5.24906 0)
(1075.76 399.277 0)
(990.095 0.027355 0)
(703.068 314.951 0)
(1007.1 9.79117 0)
(990 1.13587e-11 0)
(990.006 0.0224161 0)
(575.439 336.84 0)
(990 8.42064e-08 0)
(990 -1.42339e-11 0)
(457.821 336.688 0)
(990 9.74038e-05 0)
(958.199 12.205 0)
(990 -7.99114e-11 0)
(990 8.09815e-12 0)
(990.043 0.0595791 0)
(990 0.000656013 0)
(990 2.36179e-05 0)
(1029.92 -474.571 0)
(1030.82 -74.2734 0)
(706.908 -271.334 0)
(990 0.000264534 0)
(1031.35 -66.1787 0)
(993.871 -10.7601 0)
(539.407 337.25 0)
(1059.67 434.718 0)
(989.919 -1.13176 0)
(229.629 52.895 0)
(1052.24 -172.138 0)
(990.004 -0.0146836 0)
(991.287 -7.28365 0)
(943.843 -209.342 0)
(1008.73 8.97352 0)
(1032.1 483.002 0)
(990 -7.23197e-12 0)
(249.309 -299.613 0)
(990 7.83457e-10 0)
(755.088 242.38 0)
(509.152 349.099 0)
(990 3.43705e-10 0)
(990 8.72632e-07 0)
(990 -1.13775e-08 0)
(1054.61 -180.029 0)
(597.487 -196.045 0)
(1081.83 -373.239 0)
(990 -0.00010922 0)
(990 -0.000114035 0)
(233.411 -280.215 0)
(990 1.97132e-09 0)
(990 5.58892e-11 0)
(989.974 -0.114811 0)
(874.928 229.765 0)
(990 -2.06442e-12 0)
(237.687 210.714 0)
(990 1.60901e-09 0)
(990 -1.73773e-11 0)
(1035.38 480.243 0)
(984.848 -95.9793 0)
(518.25 345.049 0)
(1049.61 29.1978 0)
(990.001 -0.00292425 0)
(990 -1.6013e-06 0)
(990 1.82467e-07 0)
(990 -1.86096e-10 0)
(664.693 -277.987 0)
(990 1.50696e-09 0)
(990 1.36382e-12 0)
(990 6.27256e-07 0)
(990 2.15331e-06 0)
(956.451 18.9155 0)
(990 1.80892e-09 0)
(990 3.87372e-07 0)
(990.003 -0.00169545 0)
(958.637 -229.164 0)
(686.978 -264.541 0)
(990 -9.36495e-08 0)
(990 -9.2388e-12 0)
(1066 -5.80248 0)
(759.468 241.811 0)
(653.428 -314.818 0)
(1062.25 -214.546 0)
(989.893 -0.867026 0)
(428.576 -323.141 0)
(918.25 -379.446 0)
(815.558 -154.82 0)
(990 -9.6229e-09 0)
(471.382 330.371 0)
(990 -3.60395e-09 0)
(914.768 -256.58 0)
(990 1.27107e-10 0)
(955.687 28.0997 0)
(990 5.49998e-06 0)
(990 9.72874e-05 0)
(990 -1.10144e-11 0)
(989.945 -0.656018 0)
(1015.55 106.335 0)
(584.35 330.202 0)
(920.144 -29.8596 0)
(990 -9.26506e-06 0)
(990 -3.1199e-12 0)
(1045.45 322.754 0)
(989.999 0.00028062 0)
(366.294 -294.05 0)
(470.16 20.2697 0)
(990 -4.58997e-12 0)
(990 -1.51697e-09 0)
(916.876 268.04 0)
(1042.59 -139.344 0)
(734.448 320.847 0)
(1019.42 70.0978 0)
(990 -8.14095e-12 0)
(717.269 -447.79 0)
(990 6.22602e-09 0)
(990 1.91661e-12 0)
(990 -8.53176e-09 0)
(990 -0.000189825 0)
(990 0.00182996 0)
(569.015 312.938 0)
(990 4.06802e-05 0)
(945.999 -66.1409 0)
(990 -7.75941e-06 0)
(1004.59 136.486 0)
(685.782 -264.866 0)
(990 1.43454e-10 0)
(536.651 346.161 0)
(298.873 300.484 0)
(990 1.02e-07 0)
(990 -1.20397e-08 0)
(989.999 0.0630286 0)
(990 -4.87176e-10 0)
(990.002 -0.00399357 0)
(990 1.65305e-10 0)
(990 2.58022e-12 0)
(378.211 -298.748 0)
(989.999 0.000860929 0)
(990.003 -0.00110008 0)
(990 -0.00118923 0)
(990 1.65541e-07 0)
(990 -4.82661e-08 0)
(990.042 0.0162042 0)
(990 -1.08441e-09 0)
(990 -5.40911e-07 0)
(964.487 -17.4821 0)
(1080.21 401.696 0)
(990 -6.66743e-05 0)
(990 -1.40602e-11 0)
(990 -7.77377e-09 0)
(990 -4.14824e-07 0)
(990 -3.92827e-09 0)
(990 -1.48319e-05 0)
(806.734 181.106 0)
(990 8.43094e-09 0)
(989.999 0.000213191 0)
(990.001 -0.00255127 0)
(947.945 63.2779 0)
(990 5.7153e-06 0)
(990 -0.00080378 0)
(990 -4.54627e-05 0)
(989.955 -0.00579341 0)
(857.465 -135.098 0)
(989.982 0.0127563 0)
(990 -1.3248e-08 0)
(990 -1.63999e-06 0)
(990 2.28377e-07 0)
(1054.12 303.336 0)
(950.684 -45.9911 0)
(946.271 28.1553 0)
(990 7.95507e-11 0)
(954.914 26.4673 0)
(1058.8 438.266 0)
(141.936 -232.029 0)
(990 1.12395e-09 0)
(990 -4.58396e-11 0)
(990.001 -0.000951439 0)
(990 -2.07847e-08 0)
(406.62 -301.484 0)
(891.904 -284.282 0)
(1031.5 -92.3899 0)
(1064.34 405.223 0)
(1021.5 -17.2361 0)
(990 1.64345e-11 0)
(990 -3.28092e-10 0)
(982.946 1.48265 0)
(989.984 -0.00216399 0)
(993.873 16.3589 0)
(922.372 261.966 0)
(990 -1.74771e-09 0)
(499.257 350.961 0)
(990 -1.05398e-11 0)
(920.778 22.9714 0)
(311.232 -270.922 0)
(1008.44 61.7127 0)
(990 -3.70007e-10 0)
(990 2.34536e-09 0)
(918.766 -311.367 0)
(990 6.58155e-10 0)
(1038.32 324.787 0)
(1062.94 450.086 0)
(990 -1.65757e-10 0)
(990.006 -0.659743 0)
(1001.45 112.868 0)
(990 -1.39804e-11 0)
(638.318 -290.174 0)
(583.959 -302.212 0)
(584.657 303.186 0)
(959.49 19.083 0)
(990 -1.42173e-09 0)
(990 -6.45361e-06 0)
(257.503 290.441 0)
(990 9.32926e-10 0)
(902.32 -270.526 0)
(990 -7.62346e-06 0)
(990 -5.81566e-12 0)
(417.896 -345.075 0)
(636.426 319.842 0)
(990 -2.24661e-08 0)
(990 -0.000120807 0)
(965.697 -136.413 0)
(989.989 0.0359273 0)
(990 -4.15419e-07 0)
(990 0.000123975 0)
(243.666 218.083 0)
(1048.3 131.997 0)
(924.228 -243.358 0)
(990 1.49006e-09 0)
(1047.77 166.932 0)
(990 2.76531e-06 0)
(990 1.21974e-12 0)
(990 1.01806e-06 0)
(990 5.24483e-12 0)
(990 2.36335e-10 0)
(1032.24 -84.8583 0)
(990 -7.13318e-09 0)
(990 4.41615e-10 0)
(990 2.92384e-09 0)
(535.813 327.427 0)
(632.553 324.819 0)
(990 -5.34042e-12 0)
(990 -7.78809e-06 0)
(990 0.000124283 0)
(990 8.03042e-12 0)
(1038.12 -6.44645 0)
(556.243 -314.397 0)
(990 4.51604e-12 0)
(1064.01 -232.933 0)
(849.776 259.092 0)
(990 -1.76765e-06 0)
(990 6.35412e-07 0)
(990 -0.00148364 0)
(957.234 241.418 0)
(990 1.78179e-06 0)
(657.655 -354.608 0)
(978.126 -16.4764 0)
(990 -3.73069e-12 0)
(839.577 128.116 0)
(990 1.78105e-08 0)
(990.008 0.00146764 0)
(986.312 -1.1 0)
(990 -8.62681e-12 0)
(990 6.17712e-12 0)
(995.391 -11.0021 0)
(1075.88 12.397 0)
(989.737 -0.850176 0)
(1030 -58.0182 0)
(990.007 0.0206766 0)
(457.242 15.4669 0)
(1063.82 -372.508 0)
(990 -1.64151e-09 0)
(838.398 -156.422 0)
(849.841 145.461 0)
(990 -1.76074e-11 0)
(990 8.69122e-12 0)
(810.054 440.902 0)
(470.324 -335.985 0)
(990 -1.3871e-08 0)
(990 2.40179e-06 0)
(245.225 -306.056 0)
(756.714 349.191 0)
(1044.95 145.493 0)
(1031.3 -48.6726 0)
(990 0.000414822 0)
(990 -7.82118e-06 0)
(677.168 366.151 0)
(91.3062 19.7151 0)
(1033.99 -330.682 0)
(990.006 0.0134601 0)
(296.818 214.801 0)
(990 -4.47247e-05 0)
(958.852 -15.1924 0)
(1002.9 -461.095 0)
(990 2.57979e-05 0)
(309.036 -321.995 0)
(990 -2.26766e-11 0)
(765.489 200.699 0)
(990 -7.14528e-12 0)
(989.963 -0.195132 0)
(990 6.9594e-05 0)
(172.074 -123.864 0)
(590.886 -303.054 0)
(531.55 342.469 0)
(143.88 222.607 0)
(941.194 -25.2299 0)
(854.776 250.713 0)
(990 1.73586e-06 0)
(796.367 187.53 0)
(989.462 0.366069 0)
(990 0.000128785 0)
(990 3.46131e-12 0)
(990 -2.83483e-12 0)
(978.416 -3.79295 0)
(990 3.39309e-12 0)
(990 -2.69878e-11 0)
(990 -7.3307e-11 0)
(714.71 123.853 0)
(243.144 -280.167 0)
(989.999 0.00537128 0)
(989.997 0.00761501 0)
(613.75 -338.663 0)
(990 -4.98865e-11 0)
(927.941 -178.473 0)
(948.095 -8.55851 0)
(990 6.46229e-09 0)
(990 2.77809e-05 0)
(1045.59 250.003 0)
(791.658 284.137 0)
(1038.42 -0.795833 0)
(710.163 -249.688 0)
(1046.45 158.904 0)
(990 -4.16843e-13 0)
(799.093 -135.906 0)
(956.018 -44.6893 0)
(990.07 0.015991 0)
(990.006 0.000739103 0)
(990 -0.00203788 0)
(620.069 -332.336 0)
(1069.59 289.062 0)
(388.319 -302.52 0)
(990 -1.17672e-12 0)
(967.813 -109.159 0)
(990 1.30466e-11 0)
(717.748 -219.144 0)
(990 1.93727e-11 0)
(990 -4.90675e-08 0)
(990 7.79106e-12 0)
(990.001 0.00498684 0)
(990.003 -0.0223694 0)
(990 1.3097e-12 0)
(990 1.45458e-09 0)
(990 1.21935e-05 0)
(990 1.52745e-08 0)
(990 -3.3968e-10 0)
(990 -1.69165e-05 0)
(324.939 -274.744 0)
(990 -9.40898e-11 0)
(647.452 -75.8059 0)
(990 -9.93456e-12 0)
(990 -6.27309e-08 0)
(990 -1.00744e-10 0)
(578.176 337.614 0)
(990 2.6494e-08 0)
(989.631 -0.864376 0)
(660.985 -296.297 0)
(990 1.63695e-11 0)
(462.76 -337.471 0)
(990 1.34407e-10 0)
(711.863 -249.378 0)
(990 -8.18567e-09 0)
(114.915 208.866 0)
(990.005 -0.0127102 0)
(990 1.48141e-10 0)
(644.675 -287.618 0)
(990 -4.59724e-07 0)
(954.287 232.416 0)
(720.805 -345.698 0)
(521.805 -349.184 0)
(848.089 37.3797 0)
(989.999 0.00120027 0)
(914.176 -255.844 0)
(994.284 -3.51002 0)
(990 1.29096e-08 0)
(857.352 322.232 0)
(1024.1 389.421 0)
(990 7.20177e-07 0)
(989.978 0.0632017 0)
(953.723 251.842 0)
(990 1.24633e-06 0)
(990 1.48196e-10 0)
(749.852 -165.213 0)
(990 1.22628e-09 0)
(929.763 259.488 0)
(990 2.03693e-05 0)
(990 7.31892e-10 0)
(755.95 199.279 0)
(990 4.1137e-07 0)
(990 -8.13063e-10 0)
(-60.612 17.8254 0)
(561.654 316.132 0)
(990 1.84191e-10 0)
(990 -4.18124e-05 0)
(924.874 -217.917 0)
(990 1.34203e-13 0)
(911.311 -255.24 0)
(964.004 190.892 0)
(990 2.01412e-10 0)
(1059.02 244.823 0)
(990 -1.53257e-06 0)
(1055.18 -177.894 0)
(990 -3.50796e-08 0)
(158.895 -118.221 0)
(1032.45 -74.7782 0)
(990 -3.67774e-10 0)
(990 3.45345e-11 0)
(1031.29 -83.1322 0)
(990 -5.21538e-11 0)
(362.802 -272.582 0)
(1058.17 239.823 0)
(990 1.71774e-11 0)
(1065.08 -358.711 0)
(989.999 -0.00239637 0)
(533.693 337.166 0)
(989.975 -0.0135561 0)
(990 -4.90149e-05 0)
(990 -2.54708e-13 0)
(990 1.15331e-09 0)
(850.593 -159.113 0)
(1067.51 275.211 0)
(990 -3.09016e-12 0)
(990 3.87568e-10 0)
(1052.61 301.453 0)
(806.823 518.061 0)
(990 -7.53826e-05 0)
(989.999 6.80107e-05 0)
(917.301 26.2957 0)
(1059.01 -187.818 0)
(1044 -104.704 0)
(918.699 -149.944 0)
(990 -3.52827e-06 0)
(989.999 0.000242136 0)
(937.293 258.722 0)
(990 5.98911e-05 0)
(990 -1.85074e-11 0)
(298.148 -290.416 0)
(990 -3.39917e-05 0)
(989.926 -0.0568652 0)
(464.544 -321.104 0)
(990 5.67618e-08 0)
(930.975 -176.731 0)
(989.994 0.00171686 0)
(486.68 327.577 0)
(990.029 -0.163904 0)
(912.952 -160.891 0)
(990.001 -0.00485219 0)
(645.21 354.84 0)
(466.706 334.215 0)
(990.002 -0.00059697 0)
(141.74 -102.686 0)
(935.564 81.9813 0)
(990 1.17799e-10 0)
(990.109 0.256382 0)
(990 -6.81213e-11 0)
(400.845 -310.638 0)
(723.902 -224.022 0)
(986.87 -0.614446 0)
(990 -2.08262e-08 0)
(977.096 72.9406 0)
(990 -0.00135092 0)
(1011.59 -165.369 0)
(990 6.19765e-05 0)
(989.968 0.108791 0)
(195.374 -194.872 0)
(990 -4.40779e-05 0)
(990 -9.98669e-10 0)
(990 -6.32556e-12 0)
(990 1.00808e-07 0)
(715.315 -261.711 0)
(990 -3.59321e-11 0)
(1043.82 -128.902 0)
(1015.11 -11.4582 0)
(990 7.439e-05 0)
(990 -3.25013e-08 0)
(1027.92 -112.419 0)
(990 1.56302e-09 0)
(990 -0.00155324 0)
(990.419 0.134154 0)
(990 -6.00255e-06 0)
(971.328 202.69 0)
(795.342 174.918 0)
(990 4.11506e-05 0)
(294.003 305.653 0)
(990 -2.07403e-11 0)
(738.64 -275.497 0)
(1045.96 -343.346 0)
(990 -5.00283e-08 0)
(990.003 0.00443891 0)
(990 8.48068e-09 0)
(990 7.97619e-06 0)
(1047.52 158.585 0)
(615.935 -295.019 0)
(974.142 162.971 0)
(990 -1.03565e-11 0)
(989.939 -0.348566 0)
(990 4.03253e-05 0)
(990 -7.44561e-12 0)
(990 8.85284e-12 0)
(990 -7.04672e-05 0)
(612.906 363.081 0)
(114.906 -38.3969 0)
(990 -1.23518e-11 0)
(614.739 349.841 0)
(1016.71 -86.616 0)
(646.363 -273.261 0)
(990 -6.70122e-06 0)
(990 -5.96867e-10 0)
(1006.79 83.1069 0)
(990 0.000952107 0)
(917.324 8.40989 0)
(989.874 -0.765765 0)
(990 -7.43249e-06 0)
(1070.62 286.726 0)
(711.973 -354.477 0)
(143.567 -107.264 0)
(976.555 -14.3416 0)
(1015.08 -94.0021 0)
(990 -7.30635e-12 0)
(1024.05 -160.952 0)
(990 -7.16732e-12 0)
(513.785 -314.689 0)
(990 -1.95339e-08 0)
(990 -9.12985e-05 0)
(990 8.72168e-10 0)
(867.177 117.893 0)
(989.999 0.00306161 0)
(989.958 0.00644171 0)
(669.28 343.208 0)
(990 -2.73525e-11 0)
(990.004 -0.0239747 0)
(1072.13 435.317 0)
(974.804 -117.164 0)
(990 0.000165396 0)
(656.795 -267.658 0)
(974.473 190.556 0)
(990 -7.51447e-06 0)
(614.503 -336.814 0)
(808.189 -130.203 0)
(990 7.6662e-11 0)
(1073.93 348.781 0)
(990 -4.95211e-10 0)
(990 3.28542e-12 0)
(860.731 61.1558 0)
(1064.14 339.439 0)
(990 -1.43053e-08 0)
(1016.53 -14.6307 0)
(990 -1.40877e-11 0)
(941.975 229.84 0)
(462.209 -324.018 0)
(990 -1.22655e-07 0)
(946.623 234.409 0)
(990 5.4881e-10 0)
(970.421 199.993 0)
(990 -5.77574e-08 0)
(990 1.91256e-11 0)
(-16.5449 -39.626 0)
(371.813 291.456 0)
(1030.64 -122.376 0)
(315.074 -270.419 0)
(990 -8.72718e-10 0)
(981.508 61.7364 0)
(989.999 0.000374351 0)
(989.845 -0.333776 0)
(990 1.1129e-11 0)
(990 -2.64482e-05 0)
(987.26 -18.4409 0)
(885.811 216.505 0)
(977.703 -123.583 0)
(990 -5.78576e-08 0)
(668.28 -334.197 0)
(1023.22 229.911 0)
(887.231 250.068 0)
(857.287 127.358 0)
(784.458 161.172 0)
(744.757 348.073 0)
(1052.46 -373.277 0)
(990 5.99915e-05 0)
(990 2.83722e-05 0)
(990 0.000383862 0)
(990 -2.2375e-10 0)
(990 -5.59488e-06 0)
(712.392 -46.5364 0)
(990 -5.89539e-12 0)
(660.949 -347.949 0)
(989.616 -1.31425 0)
(1030.77 -57.4599 0)
(449.522 313.169 0)
(969.956 -122.831 0)
(990.001 -0.0033159 0)
(990 -7.47624e-10 0)
(990 6.04976e-08 0)
(1067.15 -241.38 0)
(990 -2.58726e-06 0)
(191.35 23.1395 0)
(690.879 431.626 0)
(431.88 -345.983 0)
(952.95 503.503 0)
(990 -2.66336e-09 0)
(556.741 333.122 0)
(990.004 0.00565296 0)
(842.313 143.415 0)
(660.297 -334.634 0)
(720.306 120.771 0)
(990 -0.000382496 0)
(989.998 0.000188635 0)
(901.355 47.3888 0)
(563.003 330.627 0)
(282.901 302.278 0)
(566.462 343.246 0)
(990 2.50179e-11 0)
(990 5.4295e-11 0)
(990 1.13087e-11 0)
(898.69 171.476 0)
(458.404 332.267 0)
(134.705 -219.979 0)
(990 3.03305e-11 0)
(990.001 -0.000335753 0)
(873.405 -222.943 0)
(1029.97 -66.5279 0)
(975.837 -17.1983 0)
(990 -8.44983e-05 0)
(990 -1.56551e-11 0)
(990 -0.000568995 0)
(1047.82 141.522 0)
(990 3.41742e-07 0)
(989.993 0.020721 0)
(990 9.09797e-10 0)
(990 1.12701e-10 0)
(550.235 -320.385 0)
(990 7.27788e-06 0)
(990 7.42172e-05 0)
(990.001 0.0018322 0)
(990 3.56274e-10 0)
(990 5.62815e-12 0)
(990 2.82612e-11 0)
(990 6.01594e-05 0)
(572.774 310.8 0)
(990 1.40489e-13 0)
(990.031 0.0556152 0)
(1027.69 263.278 0)
(683.897 244.936 0)
(458.845 309.27 0)
(990 -0.000910411 0)
(205.22 -14.0997 0)
(990 -1.19781e-12 0)
(-19.2174 -39.9978 0)
(990 1.43476e-09 0)
(990 -6.17668e-12 0)
(990 -3.54317e-05 0)
(971.648 226.138 0)
(990 4.78256e-07 0)
(466.063 -46.1891 0)
(990 4.52838e-12 0)
(1069.74 -237.027 0)
(1009.78 147.885 0)
(990 1.62553e-05 0)
(990 -5.00145e-11 0)
(1049.88 -457.325 0)
(687.985 358.403 0)
(1016.07 -201.732 0)
(990 2.40728e-07 0)
(1041.8 261.412 0)
(1070.33 -240.303 0)
(989.987 0.00255842 0)
(990 5.29128e-11 0)
(930.364 -249.23 0)
(919.833 38.0478 0)
(1055.72 -430.961 0)
(990 2.21756e-09 0)
(180.619 162.008 0)
(1054.69 -146.414 0)
(990 -1.10448e-09 0)
(990 7.78587e-08 0)
(987.063 201.557 0)
(990 -5.2311e-10 0)
(990 1.5435e-11 0)
(927.439 102.348 0)
(1015.14 -452.878 0)
(990.001 0.0132491 0)
(989.982 0.0344597 0)
(322.364 262.137 0)
(1055.76 -150.814 0)
(923.757 -58.3543 0)
(990 1.05135e-11 0)
(369.441 294.886 0)
(989.934 0.194233 0)
(990 4.95879e-07 0)
(869.979 539.632 0)
(990 1.01947e-08 0)
(1067.6 -364.02 0)
(990 5.5545e-07 0)
(990 -1.11414e-10 0)
(990 5.62623e-12 0)
(990 1.68392e-05 0)
(887.671 133.25 0)
(990 -7.64946e-07 0)
(990 9.45329e-11 0)
(990 2.01449e-10 0)
(990.001 0.00013281 0)
(990.001 -0.00229715 0)
(989.996 -0.00039315 0)
(998.312 6.83611 0)
(989.978 0.0280243 0)
(725.149 358.396 0)
(924.402 60.5809 0)
(295.831 318.224 0)
(1009.92 150.675 0)
(893.118 188.88 0)
(201.002 17.0994 0)
(990.08 -0.0583103 0)
(1050.99 -283.857 0)
(933.92 262.371 0)
(993.703 90.0204 0)
(990 2.71498e-11 0)
(990 3.906e-08 0)
(990 1.99428e-12 0)
(925.029 -143.845 0)
(147.163 202.155 0)
(838.775 161.905 0)
(961.145 -27.0468 0)
(1006.99 -142.566 0)
(457.466 38.952 0)
(990 -2.39871e-08 0)
(1041.4 83.5855 0)
(1032.97 -30.3985 0)
(990 -6.55261e-11 0)
(990 -1.16491e-11 0)
(985.836 31.8493 0)
(948.661 66.849 0)
(1043.74 -200.56 0)
(628.042 114.007 0)
(834.828 -226.229 0)
(195.721 -204.149 0)
(134.133 -107.77 0)
(990 -3.1824e-07 0)
(253.226 239.726 0)
(439.257 -322.511 0)
(990.29 -0.543668 0)
(687.489 356.108 0)
(991.121 -5.48978 0)
(990 2.47889e-11 0)
(989.957 0.110185 0)
(1015.24 -188.442 0)
(990 -1.2227e-12 0)
(990 6.34801e-09 0)
(718.754 354.719 0)
(1034.59 -147.526 0)
(1013.37 -122.047 0)
(966.803 -57.1603 0)
(990 -1.1272e-06 0)
(285.912 145.191 0)
(990 1.89374e-05 0)
(990 1.02996e-10 0)
(990 2.24528e-05 0)
(989.169 -481.634 0)
(990 -4.06536e-05 0)
(935.932 226.335 0)
(989.174 -0.0210499 0)
(990 -3.22246e-10 0)
(973.439 -216.132 0)
(1031.38 -39.6448 0)
(758.967 315.603 0)
(990 -9.62744e-05 0)
(1044.13 116.26 0)
(990 1.01936e-09 0)
(990 1.42685e-11 0)
(993.93 -94.7235 0)
(753.343 -11.4356 0)
(1017.11 -422.48 0)
(850.283 143.933 0)
(990 1.39636e-09 0)
(678.865 339.56 0)
(990 -1.84812e-10 0)
(990.019 0.0382336 0)
(596.38 6.29919 0)
(1024.11 135.728 0)
(839.211 -354.934 0)
(1011.36 -131.074 0)
(1027.66 -167.862 0)
(990 1.14165e-05 0)
(990.007 -0.045995 0)
(1018.01 -134.601 0)
(943.201 -220.781 0)
(741.526 221.736 0)
(1022.94 138.889 0)
(990 0.000495062 0)
(756.137 323.536 0)
(499.019 332.863 0)
(454.625 329.335 0)
(1041.6 60.8115 0)
(260.277 242.196 0)
(990 -2.26898e-10 0)
(489.291 -349.82 0)
(990 -4.74724e-05 0)
(989.95 -0.442228 0)
(990 7.97985e-06 0)
(989.999 -0.00407978 0)
(588.337 61.3181 0)
(990 -1.99183e-08 0)
(990 3.89029e-08 0)
(403.838 -301.514 0)
(989.201 0.635161 0)
(990 -4.54418e-07 0)
(990 0.000117263 0)
(990 -1.11356e-11 0)
(990 -9.37203e-12 0)
(990 -8.49333e-12 0)
(990 -2.94235e-08 0)
(990 -0.000221971 0)
(990 6.62335e-10 0)
(990 -1.24415e-11 0)
(990 -8.95022e-09 0)
(990 5.05776e-10 0)
(990.018 0.00105961 0)
(506.307 251.714 0)
(421.023 115.261 0)
(990 1.30338e-07 0)
(990 8.70049e-09 0)
(987.377 1.9353 0)
(1013.5 167.769 0)
(1047.52 218.856 0)
(990 -6.55266e-12 0)
(357.875 271.024 0)
(1056.49 -317.347 0)
(878.848 -211.776 0)
(990 -1.77766e-07 0)
(734.187 -128.353 0)
(1012.68 -106.753 0)
(990.003 0.00137481 0)
(862.849 -302.006 0)
(1040.13 52.5458 0)
(990 9.96328e-12 0)
(547.825 322.399 0)
(990 7.61362e-09 0)
(989.999 -0.00114519 0)
(990 1.15727e-05 0)
(333.922 -271.465 0)
(895.237 210.73 0)
(908.699 88.3776 0)
(990 7.0463e-05 0)
(930.869 31.7541 0)
(990.002 0.00204959 0)
(990 -9.81588e-12 0)
(990 1.31583e-11 0)
(990 1.64317e-11 0)
(990 5.79872e-11 0)
(435.237 304.287 0)
(1064.26 -208.969 0)
(1105.76 -16.4737 0)
(990 -2.93352e-06 0)
(648.95 323.555 0)
(990 -4.35558e-11 0)
(990 -7.58749e-11 0)
(1078.12 338.336 0)
(273.422 294.447 0)
(990.001 -0.00484204 0)
(933.792 94.7054 0)
(990 2.60326e-05 0)
(392.372 -309.336 0)
(887.577 205.254 0)
(870.791 -2.27327 0)
(990 1.52567e-11 0)
(990 1.27704e-11 0)
(1054.05 -390.541 0)
(1054.07 222.83 0)
(864.236 -307.338 0)
(990 4.89821e-12 0)
(1016.85 -93.545 0)
(1047.97 230.756 0)
(290.582 -154.563 0)
(990 -5.60116e-07 0)
(990 -1.11388e-09 0)
(391.615 -339.855 0)
(681.296 245.817 0)
(990 -3.08932e-09 0)
(990 -2.75559e-12 0)
(1046.25 254.724 0)
(908.272 -179.972 0)
(882.301 214.396 0)
(1069.45 -261.028 0)
(826.956 158.49 0)
(990 1.25388e-08 0)
(573.824 -301.776 0)
(990 -5.463e-06 0)
(990.026 0.00599045 0)
(990 1.755e-06 0)
(989.973 -0.411355 0)
(990 1.76122e-11 0)
(453.84 -339.561 0)
(990.266 -0.0995662 0)
(1021.03 -137.333 0)
(928.578 -244.257 0)
(990 -4.92381e-08 0)
(990 0.000148352 0)
(925.655 -242.746 0)
(492.377 331.082 0)
(990 3.04012e-11 0)
(990 2.55313e-10 0)
(1085.92 20.2239 0)
(693.683 303.998 0)
(935.591 -45.6341 0)
(795.743 179.626 0)
(1072.83 299.25 0)
(990 1.79643e-11 0)
(607.703 329.229 0)
(398.082 -300.825 0)
(450.273 -324.62 0)
(990 -1.07776e-07 0)
(1042.28 461.97 0)
(990 1.32515e-05 0)
(270.622 -310.379 0)
(990.002 -0.00320969 0)
(514.067 337.167 0)
(1041.33 484.283 0)
(84.6083 -38.5048 0)
(989.999 -0.000867385 0)
(669.632 -244.493 0)
(1000.33 198.402 0)
(988.794 2.40062 0)
(989.953 -0.240025 0)
(932.497 -130.108 0)
(990 -0.000182338 0)
(990 -0.000940104 0)
(990 -5.50534e-09 0)
(986.918 -0.890512 0)
(101.39 -83.2231 0)
(990 -1.43989e-09 0)
(957.995 -53.275 0)
(317.108 -268.219 0)
(990 2.44567e-07 0)
(990 -2.17331e-12 0)
(990.027 0.0108906 0)
(990 2.55786e-12 0)
(1015.18 -100.386 0)
(982.361 69.4545 0)
(983.986 55.8547 0)
(990 2.72279e-08 0)
(990 3.41043e-11 0)
(990 -1.04576e-11 0)
(415.573 -311.19 0)
(1045.98 -465.903 0)
(990 -1.00998e-11 0)
(1039.13 -7.78785 0)
(990 0.000614038 0)
(142.355 28.7064 0)
(990 -8.50057e-12 0)
(746.423 350.575 0)
(299.753 -283.291 0)
(990 -3.72533e-07 0)
(990 -1.57747e-06 0)
(990 6.3451e-07 0)
(990 5.97716e-05 0)
(990 -1.26828e-07 0)
(901.151 204.332 0)
(-107.134 9.17707 0)
(653.555 -357.501 0)
(991.078 -2.15052 0)
(385.002 -333.309 0)
(904.205 -266.286 0)
(1078.34 -369.034 0)
(1060.87 273.015 0)
(970.265 191.322 0)
(1043.47 -340.35 0)
(841.734 -208.935 0)
(990 -6.58209e-09 0)
(990 -5.18591e-05 0)
(766.82 -228.242 0)
(701.175 205.16 0)
(990.005 0.0110211 0)
(990 5.53303e-12 0)
(623.996 -336.209 0)
(990 1.58943e-08 0)
(990.112 -0.117271 0)
(990 1.99805e-10 0)
(990 5.57344e-08 0)
(990 -1.20841e-06 0)
(1074.41 -351.729 0)
(990 6.13839e-10 0)
(990 0.000809827 0)
(990 1.07386e-11 0)
(1074.69 89.8196 0)
(854.144 -44.3413 0)
(1035.3 -338.712 0)
(213.955 -265.207 0)
(990 2.49955e-11 0)
(990.002 -0.00222408 0)
(990 -2.48959e-08 0)
(990 -3.58633e-07 0)
(990 5.62643e-12 0)
(948.31 -34.3433 0)
(986.709 32.7336 0)
(990 2.49991e-07 0)
(990 -2.6376e-12 0)
(220.648 -276.011 0)
(1052.89 386.651 0)
(990 0.000152511 0)
(990 8.85654e-07 0)
(1060.04 -241.191 0)
(662.662 -344.156 0)
(572.877 262.781 0)
(759.862 324.837 0)
(668.097 -179.462 0)
(990 1.39165e-11 0)
(990 4.23025e-12 0)
(1007.96 -149.235 0)
(989.969 0.0108309 0)
(990 -6.15198e-12 0)
(989.931 0.060343 0)
(990 1.18079e-11 0)
(299.143 -320.045 0)
(1065.27 -213.276 0)
(990 -7.85748e-08 0)
(751.26 353.786 0)
(1007.71 140.949 0)
(334.005 -328.093 0)
(1022.39 -34.8323 0)
(960.629 -157.32 0)
(703.104 -221.423 0)
(999.625 -76.8638 0)
(964.786 194.215 0)
(801.974 -193.522 0)
(989.913 0.0885198 0)
(990.087 0.00216322 0)
(990 1.02242e-07 0)
(990 -5.31597e-05 0)
(990 6.8657e-12 0)
(990 -1.11118e-11 0)
(990 1.89847e-08 0)
(990 5.18381e-08 0)
(743.109 -222.235 0)
(990 5.92071e-12 0)
(990 1.33162e-11 0)
(927.736 -244.49 0)
(990 0.001031 0)
(647.327 324.635 0)
(746.491 -243.133 0)
(990 4.88754e-08 0)
(990 -1.15965e-11 0)
(990 -2.41423e-09 0)
(990 -1.07372e-07 0)
(989.995 0.00115865 0)
(1060.2 -235.764 0)
(642.239 -366.893 0)
(1062.15 449.795 0)
(990.001 -0.00178682 0)
(990 -3.71825e-10 0)
(447.859 319.214 0)
(989.014 213.547 0)
(688.527 370.974 0)
(990 -4.71062e-10 0)
(990.005 -0.00271443 0)
(990 6.59589e-09 0)
(990 -1.11851e-11 0)
(990 3.38364e-11 0)
(1028.2 -497.796 0)
(990 -1.2962e-05 0)
(990 6.22244e-07 0)
(1080.9 379.537 0)
(990 0.000411503 0)
(977.079 -67.4888 0)
(219.921 216.796 0)
(990.051 -0.0946918 0)
(990 -5.78497e-08 0)
(990 -3.65711e-05 0)
(990 -1.08479e-09 0)
(990 4.34817e-11 0)
(990 3.95906e-11 0)
(990.003 -0.0257927 0)
(990 3.3027e-08 0)
(990 1.507e-09 0)
(990 -8.49838e-12 0)
(694.448 -279.286 0)
(1017.53 -124.827 0)
(817.448 22.8457 0)
(990 -0.000164622 0)
(607.586 302.526 0)
(990 2.04727e-08 0)
(990 -4.97515e-10 0)
(618.043 -290.263 0)
(990.005 0.00699262 0)
(990 7.80922e-08 0)
(775.369 57.0744 0)
(940.261 -42.1466 0)
(942.169 91.4992 0)
(1018.04 -134.032 0)
(990 1.17618e-10 0)
(1038.19 114.617 0)
(498.864 332.05 0)
(990 2.80617e-07 0)
(990 -3.00375e-12 0)
(899.221 241.779 0)
(990 -5.1556e-08 0)
(990.009 0.0097427 0)
(990 0.00250579 0)
(736.466 -233.371 0)
(990 -2.63975e-12 0)
(410.721 -31.2472 0)
(990 9.91392e-11 0)
(990 -2.88886e-10 0)
(989.997 6.13197e-05 0)
(990 -1.97043e-09 0)
(402.704 -301.454 0)
(990 -6.39618e-08 0)
(881.082 255.313 0)
(990 0.000111378 0)
(990 -4.0758e-05 0)
(913.289 -254.263 0)
(980.962 -81.9629 0)
(911.84 283.401 0)
(895.364 -155.351 0)
(1044.59 -105.468 0)
(1022.71 -132.578 0)