/*--------------------------------*- C++ -*----------------------------------*\
| =========                 |                                                 |
| \\      /  F ield         | OpenFOAM: The Open Source CFD Toolbox           |
|  \\    /   O peration     | Version:  2406                                  |
|   \\  /    A nd           | Website:  www.openfoam.com                      |
|    \\/     M anipulation  |                                                 |
\*---------------------------------------------------------------------------*/
FoamFile
{
    version     2.0;
    format      ascii;
    arch        "LSB;label=32;scalar=64";
    class       volScalarField;
    location    "0.0003999810138";
    object      p;
}
// * * * * * * * * * * * * * * * * * * * * * * * * * * * * * * * * * * * * * //

dimensions      [1 -1 -2 0 0 0 0];

internalField   nonuniform List<scalar> 
17141
(
79.78
79.78
79.78
79.78
79.78
79.78
79.78
143.591
79.78
79.78
79.78
79.78
580.482
79.78
45.4181
79.78
79.78
79.78
80.285
48.9943
79.78
79.78
79.78
19.3468
79.78
79.78
79.78
79.78
242.332
52.9529
79.78
79.78
79.78
79.78
234.72
60.5801
79.78
79.7799
79.78
79.78
36.4767
79.7826
79.78
976.295
229.928
79.78
80.128
55.4919
79.78
79.78
79.78
79.78
79.78
79.8578
79.78
79.7801
79.78
79.78
79.4965
79.7804
7.9093
79.78
88.8042
79.78
79.7804
79.78
79.78
79.78
79.78
79.78
15.9298
798.558
79.78
79.78
79.78
79.78
79.78
32.6582
785.325
79.78
79.78
79.7823
79.78
79.78
79.78
571.083
79.78
47.0833
79.78
79.78
79.78
79.78
19.1418
50.1771
79.78
79.78
79.78
79.78
79.78
79.78
79.78
79.78
79.78
79.78
79.78
963.846
79.78
322.921
79.78
79.78
137.949
79.78
79.7804
79.78
79.78
31.1753
79.78
79.78
79.78
79.7801
79.768
79.78
79.78
79.78
79.78
79.78
79.78
65.2904
79.78
79.78
79.78
79.78
21.6293
79.78
44.5917
6.83947
156.652
79.779
79.78
171.09
79.78
79.78
79.78
79.7774
634.729
79.78
813.864
79.78
231.333
79.78
48.0856
79.78
817.507
29.7752
79.78
79.78
79.78
63.368
79.78
79.78
79.78
79.78
79.78
79.78
79.7801
79.78
236.964
79.78
79.78
79.78
79.78
79.78
79.78
79.78
771.984
41.4978
37.1737
548.503
79.78
16.1873
79.78
79.78
79.78
79.78
537.076
117.426
79.78
79.78
79.78
79.78
79.78
79.78
79.78
79.78
604.302
75.1885
514.897
79.78
79.7846
45.7437
7.04521
46.0494
79.8062
79.78
79.78
102.814
124.784
79.78
79.7587
79.78
23.687
79.78
79.78
80.8412
184.575
79.7799
43.1506
79.78
79.78
32.9827
79.78
79.78
79.78
79.78
79.78
79.78
63.4133
79.78
79.78
79.78
421.753
79.78
79.78
17.7354
79.78
38.3623
79.78
62.2115
79.78
64.1831
78.2021
79.7796
777.982
79.78
79.78
79.78
79.7708
79.7565
60.4427
79.78
79.78
79.78
131.819
79.78
79.78
79.78
79.78
79.78
79.78
79.78
79.78
79.7864
79.78
79.7898
712.579
79.78
79.78
86.0543
793.603
720.797
79.78
79.78
79.78
79.78
79.78
79.78
11.3243
116.838
43.8374
79.785
310.6
363.011
79.78
79.78
32.5641
79.78
79.78
79.78
869.645
79.78
7.5762
79.78
79.78
10.1145
80.0003
79.78
15.635
79.78
20.6759
87.9597
79.78
79.78
487.854
79.78
79.78
464.644
79.78
47.2234
79.78
79.78
79.78
79.78
79.78
6.99201
79.7809
295.756
79.78
79.7827
79.7799
464.325
11.4986
79.7799
79.4438
62.0999
79.78
79.7801
79.78
88.2193
9.06742
79.78
686.769
79.78
222.095
111.215
79.78
79.78
79.78
58.7292
79.8619
34.6153
79.78
79.78
729.724
79.78
79.78
79.78
231.217
79.78
814.431
79.78
79.78
9.17615
79.78
78.9913
79.7799
79.78
79.78
79.78
79.78
308.248
79.78
79.78
79.78
79.78
53.1191
79.78
79.78
79.78
79.78
279.01
79.78
79.78
79.776
223.479
360.351
49.2252
79.78
520.969
19.3538
147.003
79.78
423.982
79.78
79.7792
79.78
82.5633
79.78
79.78
79.78
79.78
79.78
468.036
87.2537
79.78
79.78
15.7725
79.78
619.102
52.7404
79.78
79.78
79.78
70.3338
79.7832
26.9742
79.78
6.87167
79.78
79.78
79.78
79.78
79.78
347.987
79.78
42.9165
79.78
41.4529
282.529
79.78
208.367
679.573
79.78
79.78
79.78
79.78
79.78
79.78
79.78
600.274
79.78
79.78
79.78
79.78
79.78
79.78
79.78
79.78
45.4995
21.9967
79.78
79.78
79.78
79.78
79.78
79.78
166.453
79.78
79.78
79.78
97.365
79.78
79.78
79.78
79.78
134.87
79.78
79.78
79.78
79.78
48.0491
64.4075
45.3852
79.78
81.8844
11.0011
857.497
79.78
79.78
79.78
79.78
727.749
79.7806
79.78
13.2042
79.7783
79.78
79.78
79.7804
79.78
45.8842
79.78
79.78
76.5067
79.78
68.2093
763.049
55.6489
79.78
79.78
21.8865
79.78
46.45
9.79086
79.78
79.78
45.1803
79.78
344.773
363.796
327.891
45.7431
79.78
79.78
729.701
79.78
79.7802
79.78
79.78
491.648
405.361
79.78
79.78
38.6011
79.7801
79.78
79.78
808.207
47.4309
79.7714
79.78
41.0428
79.78
79.78
79.78
79.78
79.78
79.7801
79.78
79.78
79.78
398.644
414.532
79.78
79.78
79.78
79.78
79.764
346.41
79.78
47.7652
257.68
79.78
79.78
79.78
79.78
79.78
69.594
45.9045
79.78
130.628
79.78
79.78
79.7801
79.78
79.78
79.78
79.7812
79.78
79.8161
79.78
56.9672
43.7068
79.78
150.034
149.488
79.78
79.78
7.26109
430.523
79.78
79.78
640.413
79.78
68.8226
79.8761
79.78
79.78
79.7915
9.82777
46.3604
79.78
70.7368
79.78
45.9676
11.4815
79.78
548.801
79.78
194.203
79.78
79.78
79.78
913.475
358.987
278.69
833.787
68.8744
262.39
79.78
175.087
79.78
79.78
79.78
79.78
79.7804
79.78
79.78
79.78
137.356
729.232
79.78
79.78
444.419
79.78
190.353
50.0571
79.78
79.78
53.2693
79.7799
79.794
256.176
67.4478
79.78
139.653
50.7899
79.78
79.78
79.78
425.407
22.5791
599.765
79.78
79.78
79.78
196.167
79.78
79.78
79.78
79.78
79.78
79.78
79.78
79.78
79.78
79.78
79.78
56.8417
79.78
79.753
79.78
79.78
79.78
489.703
79.78
79.78
20.9924
79.78
425.771
79.78
252.598
79.78
862.864
79.78
79.78
331.223
79.78
79.78
76.4708
79.9429
90.4034
79.78
79.7771
79.7803
79.78
23.989
15.1719
79.78
79.78
79.78
79.78
79.78
79.7852
79.78
79.78
79.78
79.78
190.296
79.78
79.78
10.9314
365.51
79.78
79.78
79.78
79.78
79.7584
79.7811
79.78
25.227
79.78
58.0426
79.78
916.507
79.7804
79.78
79.78
79.7801
79.78
78.9279
45.7706
79.78
42.8958
79.78
469.199
79.78
79.78
79.78
79.78
79.779
24.0146
79.78
79.78
48.5962
7.24425
79.78
79.78
84.8669
54.3629
76.11
149.545
79.78
79.78
79.78
79.78
79.78
698.875
79.78
79.78
493.073
79.78
190.216
79.78
79.1441
79.7799
159.417
79.78
75.94
466.262
79.78
7.01161
104.786
79.78
79.78
79.78
568.884
204.737
79.7803
79.78
114.543
79.78
79.78
79.78
79.78
838.587
79.78
79.78
79.78
79.78
278.649
79.78
72.1293
80.6902
79.78
79.78
35.1066
79.78
79.78
79.7801
79.78
79.78
170.416
79.78
677.349
79.78
79.7512
46.1812
79.78
79.78
79.78
79.78
39.6317
328.409
79.78
79.78
79.78
79.78
79.78
79.78
79.78
79.7714
9.66879
79.78
79.7342
81.8547
258.405
79.78
79.78
25.9942
79.78
77.9826
79.78
79.78
23.7058
78.3955
941.153
47.1411
80.5363
79.78
36.3289
79.78
515.094
79.78
79.78
79.78
132.123
79.78
79.78
230.007
79.78
79.78
12.5972
153.876
79.78
251.097
79.78
79.78
466.733
136.534
79.78
39.2006
79.78
79.78
100.603
45.0713
79.78
80.6174
79.78
79.78
487.562
79.78
79.78
79.78
79.78
79.78
79.78
10.4958
692.426
79.78
758.032
79.78
108.084
79.78
79.78
79.78
79.78
45.3382
211.769
158.311
79.78
443.829
28.6673
90.536
138.634
158.26
79.7793
14.1411
79.78
79.78
79.78
79.78
79.78
53.6304
79.78
200.849
79.78
79.7972
373.311
152.702
79.78
79.78
79.78
44.7971
79.78
928.729
7.20089
474.269
9.55712
79.78
442.787
79.78
139.78
439.053
137.173
79.78
79.78
46.5767
438.537
689.924
499.382
79.78
79.78
79.78
164.028
449.032
874.578
79.78
79.78
218.084
79.786
46.6611
79.78
79.78
79.78
45.6991
79.78
79.78
79.78
79.78
362.489
79.78
79.78
79.78
79.78
79.78
79.78
79.78
353.336
79.78
79.78
24.6198
256.254
405.676
79.78
78.7843
79.78
10.1106
79.78
79.78
79.78
79.78
79.78
79.7308
79.78
29.9069
79.78
79.78
79.78
8.50143
78.7413
32.3992
79.78
46.3757
30.253
79.78
79.78
79.7798
62.6961
8.68924
79.78
6.468
55.3748
79.78
79.78
79.78
79.78
79.78
113.749
11.8225
79.78
79.78
737.074
53.6554
46.9485
79.78
686.701
79.78
79.78
7.20997
79.78
42.2013
79.78
79.78
79.78
79.78
46.9872
79.78
79.78
79.78
79.78
79.78
79.78
79.7807
79.78
79.7821
94.6117
658.172
79.78
180.083
937.478
79.78
48.8017
79.78
50.2118
79.78
79.78
79.78
146.082
846.603
160.13
52.2448
40.4581
39.8622
79.78
77.202
82.2277
79.78
79.78
79.7859
100.798
59.8086
79.781
215.79
839.083
952.696
79.78
771.862
516.992
79.7793
79.1763
79.7799
79.78
79.78
33.0355
79.78
79.78
79.7952
43.3025
79.7822
43.2459
79.78
81.6869
79.78
79.78
79.78
10.5395
79.78
79.78
79.78
79.78
79.78
80.7898
303.151
79.78
50.6883
79.78
79.78
41.494
92.2208
12.6067
146.715
79.78
297.261
79.78
79.78
44.6512
79.78
20.2123
79.7806
35.0263
79.78
79.78
79.78
79.7781
28.4023
79.78
79.78
167.873
515.357
97.4975
78.7469
766.598
79.78
78.7786
79.78
79.78
79.78
79.78
37.3843
79.78
79.78
535.909
79.78
79.78
79.78
79.78
79.78
79.78
79.78
79.78
79.78
79.78
79.78
79.78
79.78
79.9199
25.2746
79.78
79.78
79.7803
79.78
27.3865
79.78
726.487
18.1412
207.534
79.78
79.776
33.4773
79.78
79.7805
79.1106
79.78
383.81
79.78
79.78
79.78
700.239
211.352
106.488
79.78
46.8032
79.78
79.78
79.78
79.78
79.78
652.37
33.1395
79.8319
79.78
396.887
79.78
79.78
30.8145
712.317
79.78
111.753
79.78
576.509
196.348
79.7832
79.78
79.78
13.5443
27.9157
79.7803
79.78
80.1468
55.4188
8.72096
79.78
79.78
552.277
266.127
79.78
79.78
53.2167
175.144
205.297
43.4929
150.101
79.78
322.241
79.78
79.78
79.78
79.78
79.78
80.0178
79.78
79.78
79.7787
79.78
79.78
79.7735
528.13
79.78
79.78
79.756
342.94
90.3931
170.77
22.4161
79.78
445.127
138.166
500.068
79.78
8.81449
79.78
631.659
79.78
498.49
8.08395
972.023
79.78
225.479
79.78
79.78
79.78
137.671
79.78
79.78
79.78
79.7802
957.736
79.78
61.8806
464.921
79.78
79.78
79.78
79.78
79.9122
34.1408
79.78
79.78
79.78
79.78
80
9.66685
79.78
79.817
79.78
71.117
79.78
79.7793
709.616
79.78
79.78
79.78
79.78
79.78
206.97
12.0096
71.4415
79.7803
577.393
79.7792
36.164
22.625
79.78
46.6279
196.651
79.78
79.78
219.939
79.8933
79.78
79.78
444.601
79.78
79.78
79.78
79.78
79.78
37.604
79.78
79.78
79.78
79.7819
43.8916
46.562
764.672
79.78
79.78
79.78
79.78
79.78
66.2983
47.7455
79.78
79.78
747.429
13.9347
79.78
79.78
26.431
79.7265
17.4955
107.93
191.541
79.78
79.78
39.7421
79.78
79.78
79.78
79.78
589.626
33.251
79.78
79.7802
41.0088
538.018
72.9671
79.78
202.962
22.2738
79.7805
182.678
79.7798
79.78
79.78
79.78
79.78
79.78
79.78
79.78
211.042
79.78
79.78
79.7776
79.78
395.84
242.527
79.78
79.78
79.78
79.78
79.78
27.1204
80.688
10.7055
79.78
79.78
515.278
79.78
79.7922
79.78
79.78
79.78
79.78
79.78
7.50367
79.78
79.78
26.0373
79.78
38.2535
6.3367
79.78
79.78
79.78
79.78
79.78
79.78
79.78
79.78
79.78
79.78
306.69
79.7801
69.0199
79.78
392.651
79.78
79.78
335.307
79.78
79.78
79.7867
89.4981
114.291
79.78
79.78
35.1652
426.135
79.78
79.78
30.052
79.78
79.78
79.78
229.278
79.78
39.3115
79.78
79.78
79.78
79.78
469.049
79.78
91.3919
79.78
79.78
79.7695
79.78
79.78
157.458
76.1388
79.78
79.78
79.78
45.4057
15.1976
79.78
79.78
79.78
289.871
18.5007
79.78
79.78
80.5203
79.7798
45.1188
79.78
19.7665
390.467
79.7801
79.78
205.911
79.78
79.7807
79.78
79.78
79.78
79.78
79.78
157.793
79.774
863.613
79.78
79.78
79.78
79.78
79.78
79.78
50.2906
79.78
79.78
79.78
79.78
79.78
101.918
79.78
207.715
79.78
223.382
79.78
15.1555
441.415
79.78
513.256
79.78
79.78
79.78
102.513
52.4473
79.78
79.7801
166.171
79.78
528.377
79.78
194.335
211.451
79.78
79.78
79.78
79.78
79.78
79.78
174.243
79.7804
79.78
17.3132
79.78
79.7778
116.013
79.101
79.78
84.1911
79.78
79.78
79.8162
79.78
79.78
41.6848
79.78
79.78
79.78
79.78
105.144
79.78
693.097
79.78
79.78
676.498
79.78
79.78
79.78
7.24376
115.287
75.7325
203.149
79.78
80.2978
79.78
639.856
168.865
11.1613
79.78
50.3992
79.78
79.78
646.116
79.78
568.572
43.4372
79.78
79.9189
79.78
79.78
79.9755
79.78
79.78
102.955
79.78
34.939
79.78
79.78
79.78
79.78
79.78
45.0105
79.78
79.78
47.8974
79.78
79.78
236.528
45.6742
207.691
79.78
925.035
79.78
79.78
79.78
430.412
79.7801
79.78
7.65456
15.7483
61.9962
487.915
79.78
79.787
79.78
76.2426
32.2707
79.78
471.959
77.2021
79.78
206.157
79.78
79.78
180.202
79.78
198.264
79.7684
79.78
79.78
103.11
79.793
79.78
79.78
79.78
27.5497
79.78
467.056
79.78
189.984
79.78
79.78
49.7319
232.82
79.78
79.78
79.78
79.78
231.038
79.7798
79.78
112.078
107.128
21.7396
79.7799
79.78
43.188
79.78
79.78
79.78
79.78
79.8319
11.573
79.78
329.475
79.78
79.78
53.5142
79.78
79.7796
79.78
79.78
31.0255
934.347
409.421
79.78
408.192
79.78
72.2736
79.78
79.7803
79.78
314.789
79.78
27.7817
7.42133
79.78
82.3917
100.269
79.78
37.3067
79.78
79.7723
79.78
79.78
13.7407
25.3814
46.3186
567.536
99.053
79.78
79.7802
79.78
79.78
79.78
79.78
79.7809
44.8724
79.78
79.78
44.4488
98.299
79.78
79.78
79.78
79.78
79.7805
59.7546
46.3855
53.1896
79.7807
370.623
79.7778
79.78
79.78
79.7779
79.78
79.78
79.78
79.78
447.805
324.068
327.108
79.78
44.222
79.78
33.7958
47.7161
502.64
79.78
79.78
79.78
24.7724
230.293
27.4724
136.781
16.3985
129.95
79.78
85.7501
79.78
79.78
108.947
79.78
70.7218
79.7847
79.78
79.78
79.7799
301.628
32.4739
79.78
79.78
79.78
79.7793
16.0461
867.876
79.78
37.2399
141.173
79.78
79.78
170.195
79.78
79.78
79.78
79.78
13.6873
178.446
90.245
168.702
79.78
12.3466
79.78
79.78
51.0028
79.78
79.78
79.78
60.1411
79.78
21.5263
79.78
79.78
79.78
49.6558
79.78
79.78
79.78
79.78
79.78
910.929
79.78
79.78
79.78
414.767
654.313
79.78
947.297
79.78
8.83981
47.5952
79.78
79.78
170.062
130.595
79.78
79.7807
79.78
339.81
30.1021
485.871
75.6122
56.7168
79.78
102.597
79.78
79.78
79.7821
79.78
714.137
172.696
79.78
79.804
79.78
164.212
79.78
79.78
79.78
375.876
69.1059
79.78
79.78
79.7756
79.78
79.78
79.7567
79.78
79.78
79.78
79.78
296.454
646.622
79.78
79.78
22.5878
79.78
79.8392
79.78
79.6239
79.78
140.628
79.78
79.78
79.78
361.514
79.78
65.0709
79.7259
44.654
79.78
79.78
98.548
245.194
7.4441
49.495
79.78
74.6858
210.52
79.78
79.78
40.367
793.512
79.78
79.78
79.78
183.171
79.78
79.78
7.55913
79.78
62.8822
79.78
97.6069
79.78
79.78
512.481
79.78
40.5925
79.78
84.296
79.78
79.78
345.084
79.78
79.78
79.78
79.78
79.7698
79.78
79.78
79.78
964.11
44.307
372.287
79.7785
46.1523
53.5795
79.78
311.56
79.78
79.78
79.7777
79.7791
79.78
216.779
555.713
84.7995
79.78
79.78
79.78
79.78
79.78
337.168
79.78
424.884
103.901
79.78
97.7803
50.5572
197.445
89.687
79.78
79.78
79.7864
79.78
79.78
53.6361
79.78
197.467
27.751
79.78
79.78
548.161
104.315
79.78
79.78
338.317
167.258
79.78
97.1209
43.5941
914.758
79.78
79.78
839.551
27.2165
79.78
11.7913
79.78
812.226
154.507
79.78
664.781
79.8301
645.627
79.78
44.9282
654.396
98.2871
79.78
79.78
79.78
79.78
506.701
79.78
79.7756
79.7802
79.78
79.78
79.78
79.78
79.78
78.6164
79.78
79.78
74.3651
45.8863
28.3781
81.5382
79.78
79.78
79.78
783.782
46.5748
79.78
8.92514
79.78
79.7792
79.78
587.685
79.78
565.485
47.3698
79.8299
42.3639
79.78
181.124
79.78
79.78
99.6737
79.78
798.247
79.78
605.014
200.873
79.78
79.78
79.78
29.9015
163.506
32.0553
79.78
79.78
434.626
79.78
914.569
79.78
79.78
79.777
79.78
13.807
80.8394
200.204
103.939
79.78
695.145
79.78
40.6455
79.78
155.364
79.78
426.129
79.78
306.385
69.8135
310
79.78
79.78
161.543
79.78
79.78
79.7836
79.78
79.78
84.2181
79.78
79.78
79.78
216.956
79.78
79.78
80.4436
80.0958
79.78
79.78
211.784
531.644
79.78
79.78
79.78
10.9523
79.7848
79.78
658.801
94.0886
431.714
9.51701
79.78
79.78
79.78
79.78
48.6168
79.78
45.5268
89.9081
79.78
79.78
79.78
79.78
79.78
79.78
71.8675
15.1814
300.365
79.78
79.78
79.78
40.2609
11.5668
79.78
79.78
429.498
404.989
465.228
79.78
76.0799
79.78
416.924
79.78
155.311
72.4931
45.5733
508.902
79.78
79.78
98.4019
79.78
43.8793
930.904
79.78
79.78
79.78
784.562
46.5198
17.9755
79.78
8.17396
79.78
12.5411
736.939
79.78
79.78
79.78
50.3757
44.5964
79.78
13.9457
39.2611
169.542
79.78
168.931
628.174
46.4576
79.78
41.2012
79.78
79.78
79.78
79.78
79.78
79.78
275.894
79.7802
79.78
79.78
79.78
452.667
79.78
545.018
79.78
79.78
16.9144
79.78
79.78
79.78
79.78
79.7799
26.9493
79.78
79.78
13.5383
79.78
79.78
110.753
87.82
79.78
79.78
784.88
79.78
152.817
79.78
79.78
79.78
52.6893
79.78
44.721
562.471
41.3932
79.78
161.81
767.209
79.78
113.573
79.78
79.78
165.649
11.9249
79.78
79.78
60.0562
79.78
480.259
79.78
173.74
79.78
232.129
78.0415
79.78
80.9496
79.78
79.7798
79.78
482.189
79.78
46.8162
598.204
79.78
168.494
586.188
79.78
79.78
79.78
476.488
71.7208
79.78
221.643
79.78
79.78
79.78
79.78
933.525
79.78
611.492
79.78
79.78
79.78
68.5202
79.78
182.788
79.78
79.7829
79.78
79.8414
161.275
79.7801
292.772
92.3604
79.78
91.082
79.78
297.045
79.78
45.4883
30.4434
157.262
79.78
79.78
79.78
188.308
814.163
79.78
79.78
79.78
79.78
324.841
79.78
79.78
79.7799
79.78
79.78
207.72
79.78
79.78
79.78
414.924
18.3804
79.78
79.78
79.7802
79.78
79.78
812.6
178.093
814.79
79.78
79.78
79.78
762.048
182.466
8.3208
79.78
79.7815
79.78
459.261
319.721
271.127
79.78
79.78
44.3382
79.78
79.78
79.78
79.78
79.2778
9.933
11.1083
79.7798
79.78
46.0259
79.78
682.191
860.13
79.78
79.78
214.279
79.78
79.78
54.8902
79.78
79.78
79.78
18.9973
96.0232
116.569
79.78
79.78
126.003
115.209
79.78
28.9355
79.78
79.78
79.7902
44.7852
79.78
160.843
377.46
30.6767
83.7886
276.736
109.385
79.78
79.78
297.779
79.78
803.238
204.641
79.78
108.101
79.7797
753.232
79.78
79.78
183.331
79.78
890.179
55.6049
79.7801
79.78
794.653
62.4508
39.2656
79.78
397.44
13.1912
226.901
10.8038
79.78
79.7817
515.497
697.612
79.78
19.041
79.78
203.324
79.78
79.78
79.78
72.5464
79.78
79.78
79.7799
80.0012
578.628
527.001
858.081
206.788
268.269
79.78
11.0667
79.78
79.78
79.78
348.644
20.8482
79.7864
43.3369
79.78
79.78
79.78
79.78
79.78
102.636
79.78
79.78
406.139
79.78
677.267
79.78
79.78
79.78
27.6072
79.78
11.697
94.7111
79.78
79.78
79.78
79.78
79.78
79.78
79.78
79.78
79.78
79.7997
79.78
97.0207
66.3009
79.78
79.78
79.78
189.615
79.78
79.78
79.78
79.78
79.78
164.583
217.811
79.78
79.78
12.4987
24.7193
79.78
521.814
79.78
79.78
76.3166
22.569
79.78
79.78
79.78
9.62162
79.78
79.78
79.78
79.78
815.069
79.78
61.2452
79.78
79.7694
89.8028
79.78
79.7799
45.8234
919.988
72.5826
15.8923
46.7214
79.78
797.831
79.78
79.78
79.78
159.024
79.8695
79.78
718.895
79.78
538.306
275.644
79.78
79.78
58.2397
79.78
79.78
79.78
79.78
527.67
79.78
80.3392
79.78
103.577
79.78
959.665
79.7642
79.78
79.78
79.78
257.418
79.78
79.8018
79.6228
79.78
260.43
79.7831
79.7785
54.9059
79.78
243.68
267.133
79.78
121.062
51.0662
79.78
250.182
523.79
79.78
79.78
79.78
120.152
79.78
79.78
45.6257
243.617
153.501
193.175
539.554
134.481
79.78
79.78
428.84
660.875
79.78
79.78
79.78
93.3501
23.3208
79.78
841.103
397.567
79.78
79.78
79.78
79.7798
79.78
79.8357
79.78
79.78
213.165
79.7015
183.275
79.7803
79.78
79.78
79.78
25.708
84.0453
244.958
826.504
39.334
127.4
841.279
8.22327
79.78
79.78
79.78
856.271
46.5604
49.7576
95.0697
79.78
113.274
79.78
79.78
218.499
79.78
79.78
419.659
79.78
79.78
962.773
60.7048
79.78
79.78
377.28
620.058
79.78
304.614
79.78
697.686
786.385
59.3733
79.78
293.105
79.78
108.33
79.78
79.78
79.78
79.78
79.78
342.261
79.78
79.78
16.4642
79.78
150.613
97.0178
9.67686
79.78
46.1227
79.7788
79.7792
703.789
79.78
29.5107
37.7838
79.78
240.546
79.78
770.024
85.252
79.78
79.78
79.78
66.1257
57.8958
34.1036
79.78
40.5462
644.238
6.76626
250.149
79.78
32.9959
79.78
99.3721
149.323
320.279
7.05682
79.78
79.78
79.78
739.144
154.28
79.78
7.94407
79.78
533.035
79.78
39.6002
79.78
79.7817
38.9995
79.78
401.588
67.3626
505.783
79.78
827.339
79.78
344.11
79.78
79.7662
79.78
79.78
79.78
424.959
79.78
79.78
207.831
698.036
79.78
37.3906
223.848
82.7622
79.78
79.78
39.9235
79.78
605.322
900.158
122.238
13.7364
311.631
14.6856
894.108
31.3701
79.78
79.7875
679.491
68.7802
79.78
79.78
79.78
79.78
79.78
44.3004
578.007
79.78
80.3684
283.787
12.117
79.78
79.78
78.0117
79.78
58.0705
79.7801
816.624
767.303
79.78
310.054
79.78
337.821
79.78
79.78
193.173
110.119
821.862
79.78
79.78
459.839
893.954
79.78
19.0462
79.78
80.885
79.78
79.7807
11.8993
79.78
7.29978
101.311
79.78
79.78
58.1532
79.78
79.78
79.78
79.78
79.78
79.78
79.78
79.78
57.724
35.6859
79.78
79.78
79.78
79.78
79.78
708.181
79.78
83.204
79.78
79.78
186.954
79.78
79.78
79.78
79.78
37.1458
79.78
100.31
870.571
79.78
79.78
39.1965
493.755
79.8799
873.211
79.78
133.192
536.493
604.93
9.80112
79.78
50.9572
79.78
79.78
37.0664
527.119
42.2325
79.78
763.006
79.781
79.78
39.7238
79.78
392.914
79.78
746.265
79.7897
43.2386
79.78
492.764
79.78
79.78
409.611
94.6143
79.78
79.78
79.5167
40.4677
79.8309
79.7808
79.78
445.368
79.78
583.478
79.7801
79.78
31.6491
572.11
428.923
502.575
120.309
404.307
326.942
278.624
31.2035
79.78
79.78
79.7802
8.36932
88.3222
79.78
573.731
21.0192
96.459
79.78
72.3985
733.224
17.5979
79.78
79.78
79.78
585.95
79.78
489.809
79.78
79.78
76.0409
79.78
79.7697
101.801
79.78
79.78
46.1524
79.78
24.4409
79.7799
551.54
16.0752
80.1413
451.837
79.78
79.78
79.78
79.78
79.78
79.78
200.754
79.78
801.475
79.7224
79.78
79.7814
79.78
79.78
168.961
79.78
10.2017
79.78
79.78
842.577
681.382
622.344
79.78
382.638
79.78
701.623
79.78
79.78
79.7797
789.118
178.002
79.78
79.78
37.6869
79.7801
78.7755
79.78
79.7805
160.117
79.78
79.78
135.48
79.78
79.78
79.78
79.7779
122.002
315.083
79.7801
79.78
365.747
44.9226
315.584
79.78
12.5504
110.645
182.499
79.78
77.5089
79.78
79.78
79.78
79.78
855.563
79.78
79.78
30.5269
547.336
79.78
79.78
79.78
143.023
761.066
63.2705
515.774
79.78
298.69
79.78
764.862
239.942
79.7835
79.78
80.2741
159.657
79.78
47.7904
15.4149
876.681
79.78
8.05963
247.046
11.5441
331.164
567.664
546.076
79.78
79.78
79.78
20.559
732.432
729.186
149.424
59.1133
78.9173
142.122
653.956
148.707
195.142
79.78
11.0231
79.78
227.654
81.6781
82.2997
79.78
66.1209
405.953
79.78
32.0235
79.78
79.78
534.062
652.349
79.78
79.78
79.78
79.78
79.777
79.78
122.839
80.0806
79.5575
79.78
79.78
79.78
79.78
498.765
79.78
79.78
36.0963
79.78
145.689
79.78
9.40865
79.78
79.78
79.8245
51.8308
79.78
204.866
340.59
79.78
108.644
80.3489
79.78
449.319
79.7801
48.0205
161.957
757.067
79.78
79.78
79.78
402.925
79.78
178.858
119.602
723.852
33.0735
79.78
238.017
650.411
652.209
79.78
79.78
173.15
228.097
82.289
79.78
247.038
84.0278
166.089
129.133
166.705
79.78
630.997
43.3575
79.78
33.0237
34.2854
79.78
79.78
378.013
48.6249
79.78
79.4898
79.8892
175.91
79.78
79.78
15.346
308.849
455.647
79.78
109.675
123.892
79.78
47.8175
79.78
387.635
79.78
32.3557
7.55063
79.78
79.78
79.78
79.78
79.78
163.857
79.78
10.3378
7.44448
79.7796
646.874
78.5394
79.78
79.78
79.78
79.78
339.854
79.78
79.78
685.674
26.6996
79.78
779.378
538.009
48.203
79.78
8.55932
95.7533
359.216
79.78
518.379
79.78
559.474
572.172
79.7805
79.78
320.103
79.78
79.78
79.78
46.3101
79.78
79.78
79.78
79.78
79.78
79.78
80.9584
253.744
79.78
79.7795
88.5528
79.78
948.211
585.549
631.276
79.78
79.78
79.78
45.8061
51.7549
147.552
79.78
26.3953
57.6418
166.464
122.586
79.78
79.78
79.78
79.78
109.023
79.78
77.933
594.646
46.0281
79.78
79.78
197.532
79.78
79.78
79.78
79.8177
403.317
79.78
280.891
430.377
472.628
79.78
16.1567
79.78
123.739
167.801
79.78
354.384
79.78
85.8023
79.78
80.0926
79.78
203.384
79.78
501.272
79.78
31.5435
419.965
244.073
264.305
79.78
881.046
328.965
38.9627
79.872
29.9813
79.78
72.2026
551.072
15.2968
79.78
715.909
79.78
79.78
55.893
106.629
16.3219
132.922
147.253
79.78
717.467
927.324
79.78
78.9101
40.0052
79.7811
175.449
782.421
79.78
79.78
79.78
82.7466
79.7799
79.78
79.78
79.7213
563.72
152.61
79.78
121.212
751.008
79.78
79.78
175.012
720.907
116.611
79.7799
114.557
47.6578
79.78
98.1453
154.559
29.4174
79.78
79.78
588.239
39.2891
79.78
7.61132
144.475
79.78
821.842
727.284
79.78
79.78
79.78
79.78
79.78
389.414
79.8469
588.965
750.73
79.78
79.7823
121.363
16.2727
22.0587
423.347
442.906
363.635
28.4004
49.852
11.1155
7.94238
79.78
79.78
79.78
79.78
320.247
52.8237
79.8008
79.78
79.7801
79.78
79.78
391.898
816.394
79.861
294.716
397.818
79.78
559.046
79.7406
79.78
79.78
79.78
129.954
79.78
79.78
45.234
79.78
74.0994
79.78
79.78
79.78
79.78
358.847
76.723
239.435
35.148
43.9256
79.78
22.3596
19.4542
13.9215
582.636
79.78
291.926
508.554
34.5139
467.379
21.7931
25.5711
79.78
85.5253
396.18
626.205
84.0986
99.6072
86.3403
45.2819
21.097
136.777
99.9409
763.434
79.7803
79.78
79.78
79.78
44.9775
180.839
79.78
79.78
79.78
136.29
79.78
79.78
79.7619
332.277
79.78
707.256
21.8208
79.79
105.974
15.0983
343.212
78.6323
79.78
79.78
621.438
79.78
79.78
79.78
79.78
151.027
79.78
144.288
400.095
79.78
79.778
79.78
79.7825
79.78
79.78
22.6247
600.934
365.583
957.506
7.02446
79.78
79.78
98.1372
76.6855
32.2418
79.78
79.78
79.8138
79.78
481.014
567.423
79.78
451.418
469.783
79.7951
7.22257
102.632
12.5143
77.665
79.78
43.0866
79.78
79.78
79.78
79.78
79.78
79.78
84.5712
79.78
79.78
131.994
79.78
79.78
79.78
79.78
79.7743
143.047
69.1213
377.895
79.779
318.589
79.78
431.426
79.78
79.78
79.78
79.78
63.1249
79.78
79.78
430.489
420.787
13.1395
530.285
79.78
79.78
585.215
12.5788
196.6
79.78
545.263
49.7607
171.66
118.322
79.78
261.589
62.4184
312.681
79.78
657.198
79.78
78.8053
79.78
79.78
79.78
95.2355
147.634
238.088
67.9112
79.78
14.4742
167.728
79.78
79.78
79.78
335.553
69.1936
79.78
79.78
48.8657
79.7808
79.78
113.56
79.7291
79.78
79.78
79.78
236.324
450.259
76.6472
570.298
374.218
79.78
166.338
133.657
941.123
79.78
15.0819
25.4267
7.4609
79.78
299.503
660.138
79.78
82.4918
79.7804
50.2412
79.78
74.6733
257.115
46.7042
79.78
516.974
79.8203
874.123
79.78
45.1112
79.78
79.78
79.78
79.7802
221.997
79.78
647.942
79.78
75.9912
82.6528
80.8781
111.363
79.78
73.0444
112.739
540.501
50.6331
681.845
22.4566
94.8004
182.584
79.78
79.78
276.549
225.544
79.7799
643.655
79.78
79.78
79.78
627.384
251.897
79.78
79.78
79.78
79.78
88.4895
51.7065
79.78
79.78
135.253
79.78
99.5325
195.165
79.78
562.083
137.085
79.78
129.657
52.58
90.0889
79.78
79.78
539.518
79.78
285.301
79.78
79.7801
426.016
79.7656
130.735
75.1312
88.6761
62.087
79.7802
79.78
79.78
79.78
81.0283
91.3037
81.8282
117.158
79.7568
283.313
79.78
79.78
79.78
28.6236
79.7801
97.3215
79.78
104.358
69.2863
287.535
60.1684
79.7787
528.905
160.735
79.7786
10.7338
79.78
130.428
637.736
286.309
525.379
79.7799
40.6371
79.78
79.7767
79.78
79.6214
511.348
79.78
92.3828
673.275
79.78
39.6183
79.78
79.78
79.781
79.9162
438.963
79.78
434.503
946.947
41.687
79.78
24.6777
79.78
377.453
80.0264
79.78
503.631
66.6351
56.7661
211.929
368.026
29.2107
677.164
470.097
79.78
79.78
79.78
927.687
79.78
46.7356
45.651
79.78
79.78
79.8151
79.78
79.78
92.2135
79.78
79.78
323.174
313.813
15.2907
195.041
79.78
395.29
79.78
79.78
54.3423
79.4212
79.78
146.762
79.7799
79.7819
79.78
279.264
499.361
79.7796
171.678
168.095
132.336
780.132
79.78
139.24
234.128
79.7784
79.78
79.7766
79.78
79.78
156.556
79.78
168.218
305.697
524.41
143.397
60.812
130.739
10.0298
93.6631
456.521
226.043
79.7807
79.78
284.925
130.618
79.78
114.183
101.629
79.78
79.78
236.865
79.78
128.532
578.645
7.81111
79.78
464.331
79.78
118.748
371.413
79.78
88.5316
79.7821
79.78
188.044
79.78
79.78
79.8935
79.7716
79.78
711.185
79.78
79.78
79.78
274.98
72.5498
79.78
79.78
79.78
80.9912
289.984
73.9441
374.565
56.1075
79.78
138.792
61.2108
165.635
64.4785
320.135
59.4146
79.78
79.78
337.385
79.78
79.7808
79.78
868.234
142.977
79.78
156.651
79.78
351.759
87.0709
79.78
79.7816
297.217
205.472
79.78
273.654
302.864
79.6763
29.9204
340.209
125.573
157.146
79.78
43.8017
79.78
138.544
92.598
79.78
51.4965
48.3077
79.782
148.598
79.78
389.645
616.357
70.9406
410.762
79.7784
74.4044
44.7941
79.78
66.7287
431.86
488.952
153.873
96.228
499.26
426.498
43.8983
88.4734
37.2947
237.998
70.211
26.9707
407.127
426.482
139.861
79.78
169.532
536.22
976.661
79.78
260.628
79.78
79.78
483.056
79.78
79.78
79.78
743.084
79.78
79.7488
361.699
79.78
79.78
110.569
79.78
112.057
15.0458
14.5377
401.147
79.78
638.561
46.5985
24.7323
138.508
453.511
79.78
79.7621
471.8
114.517
369.511
79.78
172.826
79.78
259.426
79.78
259.188
79.78
162.461
140.92
79.78
79.78
245.381
79.78
79.78
23.0706
92.6778
235.764
79.78
22.7126
116.775
326.218
66.6966
79.78
79.78
36.5548
43.5359
79.78
79.78
45.0003
252.304
79.78
79.78
104.207
79.78
79.78
79.78
593.346
79.78
541.755
79.7812
79.78
90.8126
559.85
79.78
95.8946
79.78
125.215
316.712
79.78
79.7803
231.147
900.906
446.564
79.78
79.78
411.113
79.78
79.78
79.78
79.78
329.059
422.777
79.78
138.472
137.248
79.78
83.324
77.5701
79.78
60.7425
110.772
223.754
79.78
32.6477
381.233
79.78
79.78
171.56
28.8204
126.19
159.538
124.192
79.78
41.6429
30.5656
79.78
79.78
151.282
79.782
79.778
254.851
20.4025
32.7259
356.405
79.78
275.046
79.78
79.858
387.552
105.516
215.824
79.78
79.78
546.534
306.939
156.909
79.7369
79.78
163.846
79.78
131.276
445.446
79.78
79.78
42.8111
105.263
79.78
280.638
71.0167
51.2753
79.78
45.7295
85.6694
77.5224
79.6547
302.491
79.78
62.1583
80.0022
79.78
199.518
51.5167
30.81
128.502
79.8627
42.7796
79.78
381.58
78.9951
64.5135
128.223
79.78
61.5374
287.274
78.9371
49.3081
81.1064
79.78
11.0019
54.8153
176.913
79.78
200.552
79.78
89.0452
147.152
79.78
117.41
79.78
132.232
299.56
41.5367
38.2167
104.516
79.78
97.0918
79.78
158.356
79.78
157.872
79.7801
413.982
124.529
225.172
79.8722
79.78
79.78
443.468
545.388
128.687
398.458
79.78
79.78
874.519
79.7648
79.78
10.7674
55.058
79.78
380.682
79.7618
506.315
69.7975
354.958
79.78
44.837
88.4589
79.78
79.78
79.8161
256.933
243.755
79.78
478.775
79.2194
759.2
79.78
57.3648
79.78
79.78
156.077
18.0252
348.84
79.78
88.5968
79.78
79.78
146.643
79.78
79.78
29.7156
79.7894
79.78
9.10795
260.095
79.78
32.3758
79.78
61.1017
972.501
79.78
710.042
90.1004
130.499
105.112
44.536
44.9873
79.78
79.78
79.78
121.621
79.78
76.9598
761.86
79.78
79.78
264.667
288.65
49.2435
80.1284
79.78
141.23
14.3034
100.265
87.5885
25.325
79.7803
79.78
436.775
79.78
305.096
244.343
79.7973
79.78
608.376
498.205
79.78
147.991
36.8144
85.7022
80.1744
79.78
51.8103
214.95
79.78
52.9536
76.012
167.285
417.23
7.27672
79.78
21.5208
79.78
79.78
80.0209
256.255
448.548
75.6138
133.564
11.7903
215.438
140.706
181.689
325.412
390.065
96.6849
36.266
79.78
90.3884
79.78
18.1855
78.7792
241.351
10.8574
106.658
269.633
188.74
7.18307
261.194
10.3268
79.78
49.8192
12.5659
79.78
204.485
101.537
79.78
21.0851
79.78
79.78
79.78
8.72542
124.511
155.545
79.78
79.78
79.78
79.78
79.78
160.701
118.141
79.78
79.78
423.579
79.78
79.78
75.6877
79.78
79.78
373.543
62.7513
79.78
147.659
96.8042
678.543
28.3457
79.78
198.057
10.7883
390.009
138.512
81.0622
80.0837
79.7799
75.1718
43.2679
292.244
418.349
222.247
94.9721
370.977
79.78
79.3431
380.392
79.78
79.78