/*--------------------------------*- C++ -*----------------------------------*\
| =========                 |                                                 |
| \\      /  F ield         | OpenFOAM: The Open Source CFD Toolbox           |
|  \\    /   O peration     | Version:  2406                                  |
|   \\  /    A nd           | Website:  www.openfoam.com                      |
|    \\/     M anipulation  |                                                 |
\*---------------------------------------------------------------------------*/
FoamFile
{
    version     2.0;
    format      ascii;
    arch        "LSB;label=32;scalar=64";
    class       volScalarField;
    location    "0.0003999810138";
    object      rho;
}
// * * * * * * * * * * * * * * * * * * * * * * * * * * * * * * * * * * * * * //

dimensions      [1 -3 0 0 0 0 0];

internalField   nonuniform List<scalar> 
17141
(
0.00102459
0.00102459
0.00102459
0.00102459
0.00102459
0.00102459
0.00102459
0.000987604
0.00102459
0.00102459
0.00102459
0.00102459
0.00300892
0.00102459
0.000682084
0.00102459
0.00102459
0.00102459
0.00102631
0.000714597
0.00102459
0.00102459
0.00102459
0.000333591
0.00102459
0.00102459
0.00102459
0.00102459
0.00210125
0.000517292
0.00102459
0.00102459
0.00102459
0.00102459
0.00168413
0.000704746
0.00102459
0.00102459
0.00102459
0.00102459
0.000499183
0.00102461
0.00102459
0.00408741
0.00205147
0.00102459
0.00102789
0.000651369
0.00102459
0.00102459
0.00102459
0.00102459
0.00102459
0.00102529
0.00102459
0.00102459
0.00102459
0.00102459
0.00102317
0.00102459
7.49583e-05
0.00102459
0.00072389
0.00102459
0.00102459
0.00102459
0.00102459
0.00102459
0.00102459
0.00102459
0.000252704
0.00382206
0.00102459
0.00102459
0.00102459
0.00102459
0.00102459
0.0005301
0.00373858
0.00102459
0.00102459
0.00102454
0.00102459
0.00102459
0.00102459
0.00290041
0.00102459
0.000469661
0.00102459
0.00102459
0.00102459
0.00102459
0.000248213
0.000730009
0.00102459
0.00102459
0.00102459
0.00102459
0.00102459
0.00102459
0.00102459
0.00102459
0.00102459
0.00102459
0.00102459
0.00406518
0.00102459
0.00243173
0.00102459
0.00102459
0.00109045
0.00102459
0.00102459
0.00102459
0.00102459
0.000438068
0.00102459
0.00102459
0.00102459
0.00102459
0.00102448
0.00102459
0.00102459
0.00102459
0.00102459
0.00102459
0.00102459
0.000887223
0.00102459
0.00102459
0.00102459
0.00102459
0.000364954
0.00102459
0.000670279
5.77154e-05
0.00106188
0.00102458
0.00102459
0.00110487
0.00102459
0.00102459
0.00102459
0.00102455
0.00293049
0.00102459
0.00356739
0.00102459
0.00203037
0.00102459
0.000708547
0.00102459
0.00391222
0.000493664
0.00102459
0.00102459
0.00102459
0.000868205
0.00102459
0.00102459
0.00102459
0.00102459
0.00102459
0.00102459
0.00102459
0.00102459
0.00171051
0.00102459
0.00102459
0.00102459
0.00102459
0.00102459
0.00102459
0.00102459
0.00341436
0.000639318
0.000387045
0.00280796
0.00102459
0.000209204
0.00102459
0.00102459
0.00102459
0.00102459
0.00279499
0.00105645
0.00102459
0.00102459
0.00102459
0.00102459
0.00102459
0.00102459
0.00102459
0.00102459
0.0027909
0.00100538
0.00290914
0.00102459
0.00102462
0.000682312
3.30739e-05
0.000685104
0.00102474
0.00102459
0.00102459
0.000983047
0.00110898
0.00102459
0.00102439
0.00102459
0.000405536
0.00102459
0.00102459
0.00103136
0.00126277
0.00102459
0.000657743
0.00102459
0.00102459
0.000454328
0.00102459
0.00102459
0.00102459
0.00102459
0.00102459
0.00102459
0.00035808
0.00102459
0.00102459
0.00102459
0.00276681
0.00102459
0.00102459
0.000229707
0.00102459
0.00051543
0.00102459
0.000725861
0.00102459
0.000357876
0.00101006
0.00102458
0.00340052
0.00102459
0.00102459
0.00102459
0.00102427
0.0010244
0.000682174
0.00102459
0.00102459
0.00102459
0.000928482
0.00102459
0.00102459
0.00102459
0.00102459
0.00102459
0.00102459
0.00102459
0.00102459
0.00102462
0.00102459
0.00102467
0.00320234
0.00102459
0.00102459
0.000709248
0.00379038
0.00329158
0.00102459
0.00102459
0.00102459
0.00102459
0.00102459
0.00102459
4.59576e-05
0.00111946
0.000663839
0.00102463
0.0020134
0.00243939
0.00102459
0.00102459
0.000347063
0.00102459
0.00102459
0.00102459
0.0037467
0.00102459
4.33294e-05
0.00102459
0.00102459
4.09598e-05
0.00102659
0.00102459
0.00025247
0.00102459
0.000108257
0.00102881
0.00102459
0.00102459
0.00301529
0.00102459
0.00102459
0.00237686
0.00102459
0.000699752
0.00102459
0.00102459
0.00102459
0.00102459
0.00102459
9.15554e-05
0.0010246
0.00203706
0.00102459
0.00102461
0.00102459
0.00275151
0.000167997
0.00102459
0.00102067
0.000855201
0.00102459
0.00102459
0.00102459
0.00103796
0.000114916
0.00102459
0.0030897
0.00102459
0.00162452
0.00124695
0.00102459
0.00102459
0.00102459
0.000821458
0.00102479
0.000559088
0.00102459
0.00102459
0.00329442
0.00102459
0.00102459
0.00102459
0.00205259
0.00102459
0.00375948
0.00102459
0.00102459
0.000119268
0.00102459
0.00102941
0.00102459
0.00102459
0.00102459
0.00102459
0.00102459
0.00200974
0.00102459
0.00102459
0.00102459
0.00102459
0.000520607
0.00102459
0.00102459
0.00102459
0.00102459
0.00185286
0.00102459
0.00102459
0.00102456
0.00164472
0.00240552
0.000722118
0.00102459
0.00272938
0.000144587
0.00101825
0.00102459
0.00214642
0.00102459
0.00102458
0.00102459
0.000818822
0.00102459
0.00102459
0.00102459
0.00102459
0.00102459
0.00291043
0.000715472
0.00102459
0.00102459
0.000191154
0.00102459
0.00315122
0.000464648
0.00102459
0.00102459
0.00102459
0.000936305
0.00102462
0.000449786
0.00102459
4.39249e-05
0.00102459
0.00102459
0.00102459
0.00102459
0.00102459
0.00193365
0.00102459
0.000307677
0.00102459
0.000426473
0.00186573
0.00102459
0.00174316
0.00325216
0.00102459
0.00102459
0.00102459
0.00102459
0.00102459
0.00102459
0.00102459
0.00306607
0.00102459
0.00102459
0.00102459
0.00102459
0.00102459
0.00102459
0.00102459
0.00102459
0.000681163
0.000377837
0.00102459
0.00102459
0.00102459
0.00102459
0.00102459
0.00102459
0.00117352
0.00102459
0.00102459
0.00102459
0.000972629
0.00102459
0.00102459
0.00102459
0.00102459
0.00107533
0.00102459
0.00102459
0.00102459
0.00102459
0.000711363
0.000552402
0.000682143
0.00102459
0.000806222
0.000158945
0.0036907
0.00102459
0.00102459
0.00102459
0.00102459
0.00375639
0.00102459
0.00102459
0.00019077
0.00102455
0.00102459
0.00102459
0.00102459
0.00102459
0.000683088
0.00102459
0.00102459
0.000997462
0.00102459
0.000620756
0.00370123
0.000630599
0.00102459
0.00102459
0.000161553
0.00102459
0.000694304
0.000147274
0.00102459
0.00102459
0.000466134
0.00102459
0.00220135
0.0021827
0.00181815
0.000686459
0.00102459
0.00102459
0.0033733
0.00102459
0.00102459
0.00102459
0.00102459
0.00239799
0.00266401
0.00102459
0.00102459
0.000288202
0.00102459
0.00102459
0.00102459
0.00373981
0.000635979
0.00102451
0.00102459
0.000633111
0.00102459
0.00102459
0.00102459
0.00102459
0.00102459
0.00102459
0.00102459
0.00102459
0.00102459
0.00227823
0.00272677
0.00102459
0.00102459
0.00102459
0.00102459
0.00102444
0.00184809
0.00102459
0.00070676
0.00222742
0.00102459
0.00102459
0.00102459
0.00102459
0.00102459
0.000938937
0.000684958
0.00102459
0.00089554
0.00102459
0.00102459
0.00102459
0.00102459
0.00102459
0.00102459
0.00102461
0.00102459
0.00102492
0.00102459
0.000517378
0.00066312
0.00102459
0.00117145
0.0012229
0.00102459
0.00102459
5.24731e-05
0.00216052
0.00102459
0.00102459
0.00283864
0.00102459
0.000921676
0.00102546
0.00102459
0.00102459
0.00102468
3.93977e-05
0.00069264
0.00102459
0.000965836
0.00102459
0.000685697
0.000130527
0.00102459
0.00249326
0.00102459
0.0013155
0.00102459
0.00102459
0.00102459
0.00406398
0.00216471
0.00202645
0.00362906
0.000583422
0.00224574
0.00102459
0.00122341
0.00102459
0.00102459
0.00102459
0.00102459
0.00102459
0.00102459
0.00102459
0.00102459
0.000743333
0.00332151
0.00102459
0.00102459
0.00298744
0.00102459
0.00181271
0.000724329
0.00102459
0.00102459
0.000766647
0.00102459
0.00102472
0.00172142
0.000908227
0.00102459
0.000888315
0.000402178
0.00102459
0.00102459
0.00102459
0.00276785
0.000322732
0.00308035
0.00102459
0.00102459
0.00102459
0.00117528
0.00102459
0.00102459
0.00102459
0.00102459
0.00102459
0.00102459
0.00102459
0.00102459
0.00102459
0.00102459
0.00102459
0.00083394
0.00102459
0.00102432
0.00102459
0.00102459
0.00102459
0.00305726
0.00102459
0.00102459
0.000105224
0.00102459
0.00210843
0.00102459
0.00170751
0.00102459
0.00368878
0.00102459
0.00102459
0.00212627
0.00102459
0.00102459
0.000995303
0.00102539
0.000575397
0.00102459
0.00102456
0.00102459
0.00102459
0.000156961
0.000168896
0.00102459
0.00102459
0.00102459
0.00102459
0.00102459
0.00102463
0.00102459
0.00102459
0.00102459
0.00102459
0.00121246
0.00102459
0.00102459
4.38287e-05
0.0021117
0.00102459
0.00102459
0.00102459
0.00102459
0.00102439
0.0010246
0.00102459
0.000325526
0.00102459
0.000813524
0.00102459
0.00407191
0.00102459
0.00102459
0.00102459
0.00102459
0.00102459
0.00101978
0.000685119
0.00102459
0.000654522
0.00102459
0.00275819
0.00102459
0.00102459
0.00102459
0.00102459
0.00102458
0.000336249
0.00102459
0.00102459
0.000717102
5.16376e-05
0.00102459
0.00102459
0.000698219
0.0007757
0.000990703
0.00144584
0.00102459
0.00102459
0.00102459
0.00102459
0.00102459
0.00330812
0.00102459
0.00102459
0.0026616
0.00102459
0.00181828
0.00102459
0.00101885
0.00102459
0.00152116
0.00102459
0.000997932
0.00240548
0.00102459
3.0077e-05
0.00100879
0.00102459
0.00102459
0.00102459
0.00294241
0.00125722
0.00102459
0.00102459
0.00123995
0.00102459
0.00102459
0.00102459
0.00102459
0.00385488
0.00102459
0.00102459
0.00102459
0.00102459
0.0019317
0.00102459
0.000953441
0.0009702
0.00102459
0.00102459
0.000564345
0.00102459
0.00102459
0.00102459
0.00102459
0.00102459
0.00115548
0.00102459
0.00320467
0.00102459
0.00102432
0.000690509
0.00102459
0.00102459
0.00102459
0.00102459
0.000516911
0.0020135
0.00102459
0.00102459
0.00102459
0.00102459
0.00102459
0.00102459
0.00102459
0.00102452
3.90559e-05
0.00102459
0.00102414
0.00104335
0.0014801
0.00102459
0.00102459
0.000432673
0.00102459
0.00075719
0.00102459
0.00102459
0.000344432
0.0010121
0.00414064
0.000697078
0.00103147
0.00102459
0.000405058
0.00102459
0.00293432
0.00102459
0.00102459
0.00102459
0.00107546
0.00102459
0.00102459
0.00196636
0.00102459
0.00102459
0.000204628
0.00158186
0.00102459
0.00144923
0.00102459
0.00102459
0.00304637
0.000884042
0.00102459
0.000613593
0.00102459
0.00102459
0.000658559
0.000677951
0.00102459
0.000974027
0.00102459
0.00102459
0.00261642
0.00102459
0.00102459
0.00102459
0.00102459
0.00102459
0.00102459
4.20574e-05
0.0035138
0.00102459
0.00370657
0.00102459
0.00118526
0.00102459
0.00102459
0.00102459
0.00102459
0.000678034
0.00192599
0.00162623
0.00102459
0.00297823
0.000308793
0.00111224
0.00111474
0.000999059
0.00102457
0.000185696
0.00102459
0.00102459
0.00102459
0.00102459
0.00102459
0.000270338
0.00102459
0.00180896
0.00102459
0.00102475
0.00179145
0.00157146
0.00102459
0.00102459
0.00102459
0.000673971
0.00102459
0.00410326
4.32073e-05
0.00234142
9.26873e-05
0.00102459
0.00263685
0.00102459
0.00100871
0.00295237
0.000741064
0.00102459
0.00102459
0.00033293
0.0026269
0.00324565
0.00310913
0.00102459
0.00102459
0.00102459
0.00151384
0.0022784
0.00375741
0.00102459
0.00102459
0.00193231
0.00102464
0.000692207
0.00102459
0.00102459
0.00102459
0.000683764
0.00102459
0.00102459
0.00102459
0.00102459
0.00194973
0.00102459
0.00102459
0.00102459
0.00102459
0.00102459
0.00102459
0.00102459
0.00204584
0.00102459
0.00102459
0.000271033
0.00161443
0.00198435
0.00102459
0.0010241
0.00102459
4.15092e-05
0.00102459
0.00102459
0.00102459
0.00102459
0.00102459
0.00102416
0.00102459
0.000431474
0.00102459
0.00102459
0.00102459
0.000120143
0.0010158
0.000333895
0.00102459
0.00069301
0.000442415
0.00102459
0.00102459
0.00102459
0.000498576
0.000115518
0.00102459
2.78563e-05
0.000777468
0.00102459
0.00102459
0.00102459
0.00102459
0.00102459
0.00108323
0.000140175
0.00102459
0.00102459
0.00359372
0.000758607
0.000329964
0.00102459
0.00350137
0.00102459
0.00102459
5.8018e-05
0.00102459
0.000646712
0.00102459
0.00102459
0.00102459
0.00102459
0.000313681
0.00102459
0.00102459
0.00102459
0.00102459
0.00102459
0.00102459
0.00102459
0.00102459
0.00102461
0.000844152
0.00307591
0.00102459
0.0016586
0.00413212
0.00102459
0.000719654
0.00102459
0.000507787
0.00102459
0.00102459
0.00102459
0.00143119
0.00372648
0.00130097
0.000489677
0.000410166
0.000223318
0.00102459
0.00100082
0.00104676
0.00102459
0.00102459
0.00102464
0.00101164
0.00083368
0.0010246
0.00181296
0.0038517
0.00414294
0.00102459
0.00363361
0.00273107
0.00102458
0.00102015
0.00102459
0.00102459
0.00102459
0.000341743
0.00102459
0.00102459
0.00102472
0.000657766
0.00102461
0.000453312
0.00102459
0.00103879
0.00102459
0.00102459
0.00102459
0.000115145
0.00102459
0.00102459
0.00102459
0.00102459
0.00102459
0.00103377
0.00242295
0.00102459
0.000665924
0.00102459
0.00102459
0.000340393
0.00103082
0.000145953
0.0011921
0.00102459
0.00231799
0.00102459
0.00102459
0.00067137
0.00102459
0.000131061
0.00102459
0.000396107
0.00102459
0.00102459
0.00102459
0.00102457
0.000153458
0.00102459
0.00102459
0.00162179
0.00296517
0.00113885
0.00101511
0.00363812
0.00102459
0.00102402
0.00102459
0.00102459
0.00102459
0.00102459
0.000215968
0.00102459
0.00102459
0.00300277
0.00102459
0.00102459
0.00102459
0.00102459
0.00102459
0.00102459
0.00102459
0.00102459
0.00102459
0.00102459
0.00102459
0.00102459
0.00102459
0.0010256
0.000109026
0.00102459
0.00102459
0.00102459
0.00102459
0.000459551
0.00102459
0.0036316
0.000231478
0.00186029
0.00102459
0.00102457
0.000368519
0.00102459
0.00102459
0.00101845
0.00102459
0.00219882
0.00102459
0.00102459
0.00102459
0.00359473
0.00193812
0.000946834
0.00102459
0.000695125
0.00102459
0.00102459
0.00102459
0.00102459
0.00102459
0.00357267
0.000461603
0.00102504
0.00102459
0.00267301
0.00102459
0.00102459
0.000508867
0.00334495
0.00102459
0.00108564
0.00102459
0.00294684
0.00179706
0.00102468
0.00102459
0.00102459
0.000180566
0.000351566
0.00102459
0.00102459
0.00102793
0.000789011
3.77543e-05
0.00102459
0.00102459
0.00268206
0.00168406
0.00102459
0.00102459
0.000765915
0.00164946
0.00186508
0.00065925
0.00107016
0.00102459
0.00171481
0.00102459
0.00102459
0.00102459
0.00102459
0.00102459
0.00102666
0.00102459
0.00102459
0.00102458
0.00102459
0.00102459
0.00102453
0.0030297
0.00102459
0.00102459
0.00102454
0.0024098
0.000835017
0.00117293
0.000332693
0.00102459
0.00284659
0.00130492
0.0026584
0.00102459
0.000120852
0.00102459
0.00283714
0.00102459
0.00290893
0.000115181
0.00413053
0.00102459
0.00128093
0.00102459
0.00102459
0.00102459
0.00136513
0.00102459
0.00102459
0.00102459
0.00102459
0.00412445
0.00102459
0.000539655
0.00275489
0.00102459
0.00102459
0.00102459
0.00102459
0.00102579
0.000408924
0.00102459
0.00102459
0.00102459
0.00102459
0.00102636
0.000135536
0.00102459
0.00102493
0.00102459
0.000945622
0.00102459
0.00102458
0.0033937
0.00102459
0.00102459
0.00102459
0.00102459
0.00102459
0.00191177
4.92279e-05
0.000944158
0.00102459
0.00281932
0.00102458
0.000577814
0.000293904
0.00102459
0.000695421
0.00165271
0.00102459
0.00102459
0.00160993
0.00102537
0.00102459
0.00102459
0.00292672
0.00102459
0.00102459
0.00102459
0.00102459
0.00102459
0.000595044
0.00102459
0.00102459
0.00102459
0.00102461
0.000285772
0.000694775
0.00344691
0.00102459
0.00102459
0.00102459
0.00102459
0.00102459
0.000569236
0.000705394
0.00102459
0.00102459
0.00336388
0.000178009
0.00102459
0.00102459
0.00034561
0.00102405
8.13945e-05
0.00123555
0.00101421
0.00102459
0.00102459
0.000401696
0.00102459
0.00102459
0.00102459
0.00102459
0.00267919
0.000469392
0.00102459
0.00102459
0.000426333
0.00248769
0.00090358
0.00102459
0.00118206
0.000380897
0.00102459
0.00137896
0.00102459
0.00102459
0.00102459
0.00102459
0.00102459
0.00102459
0.00102459
0.00102459
0.00140913
0.00102459
0.00102459
0.00102457
0.00102459
0.00264878
0.00174067
0.00102459
0.00102459
0.00102459
0.00102459
0.00102459
0.000356319
0.00103312
0.000163258
0.00102459
0.00102459
0.00299582
0.00102459
0.00102469
0.00102459
0.00102459
0.00102459
0.00102459
0.00102459
0.000102295
0.00102459
0.00102459
0.000442174
0.00102459
0.000442575
2.78769e-05
0.00102459
0.00102459
0.00102459
0.00102459
0.00102459
0.00102459
0.00102459
0.00102459
0.00102459
0.00102459
0.00209846
0.00102459
0.000585635
0.00102459
0.0024056
0.00102459
0.00102459
0.00206149
0.00102459
0.00102459
0.00102464
0.000836606
0.00114005
0.00102459
0.00102459
0.000563682
0.00224661
0.00102459
0.00102459
0.000210378
0.00102459
0.00102459
0.00102459
0.00157948
0.00102459
0.000221512
0.00102459
0.00102459
0.00102459
0.00102459
0.00262185
0.00102459
0.00111693
0.00102459
0.00102459
0.00102449
0.00102459
0.00102459
0.00144968
0.000990914
0.00102459
0.00102459
0.00102459
0.000324593
0.00016482
0.00102459
0.00102459
0.00102459
0.00156979
0.000282208
0.00102459
0.00102459
0.00103106
0.00102459
0.000677832
0.00102459
0.000295586
0.00215886
0.00102459
0.00102459
0.00191859
0.00102459
0.00102459
0.00102459
0.00102459
0.00102459
0.00102459
0.00102459
0.00161675
0.00102453
0.00377449
0.00102459
0.00102459
0.00102459
0.00102459
0.00102459
0.00102459
0.000454435
0.00102459
0.00102459
0.00102459
0.00102459
0.00102459
0.00100229
0.00102459
0.00153174
0.00102459
0.00168694
0.00102459
0.000237085
0.00283741
0.00102459
0.00310563
0.00102459
0.00102459
0.00102459
0.000945965
0.000449788
0.00102459
0.00102459
0.00167623
0.00102459
0.0029698
0.00102459
0.00162306
0.00142649
0.00102459
0.00102459
0.00102459
0.00102459
0.00102459
0.00102459
0.00159772
0.00102459
0.00102459
7.93399e-05
0.00102459
0.00102457
0.00130454
0.00101931
0.00102459
0.00090855
0.00102459
0.00102459
0.00102481
0.00102459
0.00102459
0.000640794
0.00102459
0.00102459
0.00102459
0.00102459
0.00122308
0.00102459
0.00360284
0.00102459
0.00102459
0.00299704
0.00102459
0.00102459
0.00102459
8.9646e-05
0.00101562
0.00098807
0.00177558
0.00102459
0.00102931
0.00102459
0.00348183
0.00169247
0.000174032
0.00102459
0.000435249
0.00102459
0.00102459
0.0029418
0.00102459
0.00327939
0.000584406
0.00102459
0.000912419
0.00102459
0.00102459
0.00102637
0.00102459
0.00102459
0.000534554
0.00102459
0.000561764
0.00102459
0.00102459
0.00102459
0.00102459
0.00102459
0.000676809
0.00102459
0.00102459
0.000706301
0.00102459
0.00102459
0.0021185
0.000683301
0.0019298
0.00102459
0.00384456
0.00102459
0.00102459
0.00102459
0.00225041
0.00102459
0.00102459
9.09333e-05
0.000101839
0.000844981
0.002851
0.00102459
0.00102465
0.00102459
0.000991892
0.000345859
0.00102459
0.00257801
0.00100206
0.00102459
0.00145459
0.00102459
0.00102459
0.00144457
0.00102459
0.00133439
0.00102448
0.00102459
0.00102459
0.000911946
0.0010247
0.00102459
0.00102459
0.00102459
0.000121158
0.00102459
0.0025782
0.00102459
0.0017357
0.00102459
0.00102459
0.000729781
0.00159256
0.00102459
0.00102459
0.00102459
0.00102459
0.0019674
0.00102459
0.00102459
0.00129942
0.00121518
0.000374936
0.00102459
0.00102459
0.000558888
0.00102459
0.00102459
0.00102459
0.00102459
0.00102507
6.93607e-05
0.00102459
0.00229995
0.00102459
0.00102459
0.00076544
0.00102459
0.00102458
0.00102459
0.00102459
0.000504863
0.00416884
0.00255613
0.00102459
0.0025281
0.00102459
0.000902367
0.00102459
0.00102459
0.00102459
0.00171297
0.00102459
0.00039262
7.18256e-05
0.00102459
0.00103836
0.00102587
0.00102459
0.000494829
0.00102459
0.00102451
0.00102459
0.00102459
0.000182602
0.000384389
0.00069151
0.00297804
0.00107416
0.00102459
0.00102459
0.00102459
0.00102459
0.00102459
0.00102459
0.0010246
0.000674381
0.00102459
0.00102459
0.000670417
0.00107162
0.00102459
0.00102459
0.00102459
0.00102459
0.00102459
0.000820296
0.00069266
0.0004752
0.00102459
0.00183699
0.00102457
0.00102459
0.00102459
0.00102457
0.00102459
0.00102459
0.00102459
0.00102459
0.00220683
0.0022275
0.00232218
0.00102459
0.000279287
0.00102459
0.0003187
0.000701941
0.00251733
0.00102459
0.00102459
0.00102459
0.000220381
0.00166413
0.000152676
0.001105
0.000292824
0.000860319
0.00102459
0.000600532
0.00102459
0.00102459
0.000865557
0.00102459
0.000814882
0.00102463
0.00102459
0.00102459
0.00102459
0.00231278
0.000531885
0.00102459
0.00102459
0.00102459
0.00102458
0.000245803
0.00392653
0.00102459
0.000590637
0.00112854
0.00102459
0.00102459
0.00165462
0.00102459
0.00102459
0.00102459
0.00102459
0.000227385
0.00166536
0.000558752
0.00135372
0.00102459
0.000167034
0.00102459
0.00102459
0.000420087
0.00102459
0.00102459
0.00102459
0.000487009
0.00102459
0.000237915
0.00102459
0.00102459
0.00102459
0.000728536
0.00102459
0.00102459
0.00102459
0.00102459
0.00102459
0.0038388
0.00102459
0.00102459
0.00102459
0.00228079
0.00344488
0.00102459
0.00410401
0.00102459
0.000123269
0.000706768
0.00102459
0.00102459
0.00157258
0.00144299
0.00102459
0.0010246
0.00102459
0.0025762
0.000178241
0.00234957
0.000973453
0.000448216
0.00102459
0.0012034
0.00102459
0.00102459
0.00102461
0.00102459
0.00358657
0.00131903
0.00102459
0.00102487
0.00102459
0.0016446
0.00102459
0.00102459
0.00102459
0.00235971
0.000794388
0.00102459
0.00102459
0.00102455
0.00102459
0.00102459
0.00102437
0.00102459
0.00102459
0.00102459
0.00102459
0.00213316
0.00300551
0.00102459
0.00102459
0.00016008
0.00102459
0.00102513
0.00102459
0.00102316
0.00102459
0.0010206
0.00102459
0.00102459
0.00102459
0.00227801
0.00102459
0.000885207
0.00102409
0.000671112
0.00102459
0.00102459
0.000790925
0.0012565
9.01648e-05
0.000378929
0.00102459
0.000977366
0.00176209
0.00102459
0.00102459
0.000471221
0.00362253
0.00102459
0.00102459
0.00102459
0.00138851
0.00102459
0.00102459
7.49914e-05
0.00102459
0.000508197
0.00102459
0.00116494
0.00102459
0.00102459
0.00261706
0.00102459
0.000245087
0.00102459
0.00106478
0.00102459
0.00102459
0.00240431
0.00102459
0.00102459
0.00102459
0.00102459
0.00102459
0.00102459
0.00102459
0.00102459
0.0041568
0.000268977
0.00270241
0.00102458
0.000304396
0.000769861
0.00102459
0.0022172
0.00102459
0.00102459
0.00102457
0.00102458
0.00102459
0.00144751
0.0029195
0.000547317
0.00102459
0.00102459
0.00102459
0.00102459
0.00102459
0.00205111
0.00102459
0.00276808
0.00123434
0.00102459
0.00118013
0.000273006
0.00186427
0.00111271
0.00102459
0.00102459
0.00102465
0.00102459
0.00102459
0.000501646
0.00102459
0.00134998
0.000416474
0.00102459
0.00102459
0.00291991
0.000949817
0.00102459
0.00102459
0.00253048
0.00169355
0.00102459
0.000882878
0.000660218
0.00411821
0.00102459
0.00102459
0.00388099
0.000285011
0.00102459
4.71614e-05
0.00102459
0.00376546
0.00108516
0.00102459
0.00345123
0.00102505
0.00328521
0.00102459
0.000676465
0.00316033
0.00115287
0.00102459
0.00102459
0.00102459
0.00102459
0.00257102
0.00102459
0.00102455
0.00102459
0.00102459
0.00102459
0.00102459
0.00102459
0.00102459
0.0010139
0.00102459
0.00102459
0.000974432
0.000687585
0.000429774
0.00104046
0.00102459
0.00102459
0.00102459
0.00363585
0.000694907
0.00102459
0.000140342
0.00102459
0.00102458
0.00102459
0.00273889
0.00102459
0.00325654
0.000457532
0.00102504
0.000251461
0.00102459
0.00146229
0.00102459
0.00102459
0.000540277
0.00102459
0.00368281
0.00102459
0.00293045
0.00188314
0.00102459
0.00102459
0.00102459
0.000471954
0.00150517
0.000449489
0.00102459
0.00102459
0.00287353
0.00102459
0.00386505
0.00102459
0.00102459
0.00102459
0.00102459
0.000193133
0.00103157
0.00119419
0.00120089
0.00102459
0.00334096
0.00102459
0.000626595
0.00102459
0.00147498
0.00102459
0.00266117
0.00102459
0.00235488
0.000749219
0.00233197
0.00102459
0.00102459
0.000985993
0.00102459
0.00102459
0.00102461
0.00102459
0.00102459
0.00106454
0.00102459
0.00102459
0.00102459
0.00171732
0.00102459
0.00102459
0.00103057
0.00102748
0.00102459
0.00102459
0.00147757
0.00265619
0.00102459
0.00102459
0.00102459
0.000170815
0.00102463
0.00102459
0.00319867
0.00112242
0.00291199
4.29387e-05
0.00102459
0.00102459
0.00102459
0.00102459
0.000710918
0.00102459
0.000682913
0.00111413
0.00102459
0.00102459
0.00102459
0.00102459
0.00102459
0.00102459
0.000631937
0.000207847
0.00177361
0.00102459
0.00102459
0.00102459
0.000269583
4.69758e-05
0.00102459
0.00102459
0.00270735
0.00232218
0.00262681
0.00102459
0.000995219
0.00102459
0.00250858
0.00102459
0.00112983
0.000942506
0.000683859
0.00306267
0.00102459
0.00102459
0.00116439
0.00102459
0.000274719
0.00416799
0.00102459
0.00102459
0.00102459
0.00355579
0.000346293
0.000201638
0.00102459
0.000120028
0.00102459
0.000159417
0.0034801
0.00102459
0.00102459
0.00102459
0.000355647
0.000672764
0.00102459
0.000172614
0.000609847
0.00170642
0.00102459
0.000842982
0.00320864
0.000692627
0.00102459
0.000635203
0.00102459
0.00102459
0.00102459
0.00102459
0.00102459
0.00102459
0.00140156
0.00102459
0.00102459
0.00102459
0.00102459
0.00255776
0.00102459
0.00266347
0.00102459
0.00102459
0.000284514
0.00102459
0.00102459
0.00102459
0.00102459
0.00102459
0.000418428
0.00102459
0.00102459
0.000164735
0.00102459
0.00102459
0.00109807
0.00101045
0.00102459
0.00102459
0.00379675
0.00102459
0.00147618
0.00102459
0.00102459
0.00102459
0.000375515
0.00102459
0.000673739
0.00324153
0.000239655
0.00102459
0.00162467
0.00367365
0.00102459
0.00117699
0.00102459
0.00102459
0.00162581
0.000161273
0.00102459
0.00102459
0.00068533
0.00102459
0.00244483
0.00102459
0.00171165
0.00102459
0.00208501
0.00101961
0.00102459
0.000434819
0.00102459
0.00102459
0.00102459
0.00289393
0.00102459
0.000321879
0.00282394
0.00102459
0.00127613
0.0031769
0.00102459
0.00102459
0.00102459
0.00283299
0.000955178
0.00102459
0.00115583
0.00102459
0.00102459
0.00102459
0.00102459
0.00418778
0.00102459
0.00345111
0.00102459
0.00102459
0.00102459
0.000918526
0.00102459
0.00175296
0.00102459
0.00102462
0.00102459
0.00102511
0.00151375
0.00102459
0.0016554
0.0010701
0.00102459
0.00104723
0.00102459
0.00185471
0.00102459
0.000683292
0.000504988
0.00146895
0.00102459
0.00102459
0.00102459
0.00178902
0.00369783
0.00102459
0.00102459
0.00102459
0.00102459
0.00196781
0.00102459
0.00102459
0.00102459
0.00102459
0.00102459
0.00157239
0.00102459
0.00102459
0.00102459
0.00251186
0.000217272
0.00102459
0.00102459
0.00102459
0.00102459
0.00102459
0.00361235
0.0015
0.00392313
0.00102459
0.00102459
0.00102459
0.00366342
0.00125097
4.59108e-05
0.00102459
0.0010246
0.00102459
0.00258209
0.00221671
0.00159659
0.00102459
0.00102459
0.000668773
0.00102459
0.00102459
0.00102459
0.00102459
0.00102007
0.000144453
4.51323e-05
0.00102459
0.00102459
0.000688856
0.00102459
0.00362276
0.0038515
0.00102459
0.00102459
0.0014256
0.00102459
0.00102459
0.00046873
0.00102459
0.00102459
0.00102459
0.00033571
0.000926065
0.000734154
0.00102459
0.00102459
0.00102864
0.000907697
0.00102459
0.000455635
0.00102459
0.00102459
0.00102468
0.00067538
0.00102459
0.00122792
0.00272656
0.000189307
0.00106062
0.00164385
0.001107
0.00102459
0.00102459
0.00215396
0.00102459
0.0037885
0.00162576
0.00102459
0.000880762
0.00102459
0.00349091
0.00102459
0.00102459
0.00139625
0.00102459
0.00390189
0.000364213
0.00102459
0.00102459
0.00370867
0.000548103
0.000614313
0.00102459
0.00241702
0.000212147
0.00138079
4.4977e-05
0.00102459
0.0010246
0.00312893
0.00326887
0.00102459
0.000247837
0.00102459
0.00190376
0.00102459
0.00102459
0.00102459
0.00074988
0.00102459
0.00102459
0.00102459
0.00102658
0.0027616
0.00310317
0.00377284
0.0019221
0.00169996
0.00102459
0.000190743
0.00102459
0.00102459
0.00102459
0.00224142
0.000276429
0.00102465
0.00065763
0.00102459
0.00102459
0.00102459
0.00102459
0.00102459
0.00122366
0.00102459
0.00102459
0.0025398
0.00102459
0.00330546
0.00102459
0.00102459
0.00102459
0.000282331
0.00102459
4.6338e-05
0.000984073
0.00102459
0.00102459
0.00102459
0.00102459
0.00102459
0.00102459
0.00102459
0.00102459
0.00102459
0.00102477
0.00102459
0.0011744
0.000656403
0.00102459
0.00102459
0.00102459
0.00178317
0.00102459
0.00102459
0.00102459
0.00102459
0.00102459
0.00156921
0.00128299
0.00102459
0.00102459
0.000216611
0.000261519
0.00102459
0.00255672
0.00102459
0.00102459
0.000659329
0.000189771
0.00102459
0.00102459
0.00102459
4.57634e-05
0.00102459
0.00102459
0.00102459
0.00102459
0.00384911
0.00102459
0.000847998
0.00102459
0.00102448
0.000812907
0.00102459
0.00102459
0.000687346
0.00380524
0.000997965
0.00027792
0.000696678
0.00102459
0.00364654
0.00102459
0.00102459
0.00102459
0.00151593
0.0010254
0.00102459
0.00342439
0.00102459
0.00273499
0.00190449
0.00102459
0.00102459
0.000595151
0.00102459
0.00102459
0.00102459
0.00102459
0.00309065
0.00102459
0.0010297
0.00102459
0.000668023
0.00102459
0.00410111
0.00102444
0.00102459
0.00102459
0.00102459
0.00179816
0.00102459
0.00102479
0.00102491
0.00102459
0.00220529
0.0010246
0.00102458
0.000783589
0.00102459
0.00206518
0.00187468
0.00102459
0.000989614
0.000465418
0.00102459
0.00180468
0.00260076
0.00102459
0.00102459
0.00102459
0.000947152
0.00102459
0.00102459
0.000681011
0.00168799
0.00123199
0.00155313
0.00319334
0.00110419
0.00102459
0.00102459
0.00232581
0.00331287
0.00102459
0.00102459
0.00102459
0.000953246
0.000282279
0.00102459
0.00378769
0.00247046
0.00102459
0.00102459
0.00102459
0.00102459
0.00102459
0.00102506
0.00102459
0.00102459
0.00196086
0.00102387
0.00174254
0.00102459
0.00102459
0.00102459
0.00102459
0.000203642
0.00106268
0.00160098
0.00395752
0.000432587
0.00105966
0.00375505
0.000126788
0.00102459
0.00102459
0.00102459
0.00385615
0.000690404
0.000717428
0.00102034
0.00102459
0.000781988
0.00102459
0.00102459
0.00105768
0.00102459
0.00102459
0.00258491
0.00102459
0.00102459
0.00394065
0.000539879
0.00102459
0.00102459
0.00182902
0.0030278
0.00102459
0.00181393
0.00102459
0.00313372
0.00370773
0.000573437
0.00102459
0.00185465
0.00102459
0.00094475
0.00102459
0.00102459
0.00102459
0.00102459
0.00102459
0.00165227
0.00102459
0.00102459
0.00024211
0.00102459
0.00151113
0.000987835
0.000114208
0.00102459
0.000689296
0.00102458
0.00102458
0.00363887
0.00102459
0.000480223
0.00059242
0.00102459
0.0018825
0.00102459
0.00367541
0.0010703
0.00102459
0.00102459
0.00102459
0.000874731
0.000595875
0.000552426
0.00102459
0.000332209
0.00313015
8.15244e-05
0.00218428
0.00102459
0.000537683
0.00102459
0.0011672
0.00153959
0.00248902
3.01563e-05
0.00102459
0.00102459
0.00102459
0.00354297
0.00111161
0.00102459