/*--------------------------------*- C++ -*----------------------------------*\
| =========                 |                                                 |
| \\      /  F ield         | OpenFOAM: The Open Source CFD Toolbox           |
|  \\    /   O peration     | Version:  2406                                  |
|   \\  /    A nd           | Website:  www.openfoam.com                      |
|    \\/     M anipulation  |                                                 |
\*---------------------------------------------------------------------------*/
FoamFile
{
    version     2.0;
    format      ascii;
    arch        "LSB;label=32;scalar=64";
    class       volScalarField;
    location    "0.0003999810138";
    object      T;
}
// * * * * * * * * * * * * * * * * * * * * * * * * * * * * * * * * * * * * * //

dimensions      [0 0 0 1 0 0 0];

internalField   nonuniform List<scalar> 
17141
(
270.65
270.65
270.65
270.65
270.65
270.65
270.65
505.369
270.65
270.65
270.65
270.65
670.566
270.65
231.449
270.65
270.65
270.65
271.906
238.313
270.65
270.65
270.65
201.585
270.65
270.65
270.65
270.65
400.863
355.809
270.65
270.65
270.65
270.65
484.437
298.786
270.65
270.65
270.65
270.65
253.991
270.653
270.65
830.225
389.574
270.65
270.956
296.118
270.65
270.65
270.65
270.65
270.65
270.729
270.65
270.65
270.65
270.65
270.062
270.651
366.76
270.65
426.407
270.65
270.651
270.65
270.65
270.65
270.65
270.65
219.11
726.228
270.65
270.65
270.65
270.65
270.65
214.14
730.139
270.65
270.65
270.671
270.65
270.65
270.65
684.389
270.65
348.454
270.65
270.65
270.65
270.65
268.053
238.913
270.65
270.65
270.65
270.65
270.65
270.65
270.65
270.65
270.65
270.65
270.65
824.121
270.65
461.578
270.65
270.65
439.72
270.65
270.651
270.65
270.65
247.362
270.65
270.65
270.65
270.65
270.638
270.65
270.65
270.65
270.65
270.65
270.65
255.788
270.65
270.65
270.65
270.65
206.001
270.65
231.239
411.902
512.774
270.648
270.65
538.243
270.65
270.65
270.65
270.651
752.854
270.65
792.985
270.65
396.028
270.65
235.89
270.65
726.326
209.646
270.65
270.65
270.65
253.695
270.65
270.65
270.65
270.65
270.65
270.65
270.65
270.65
481.525
270.65
270.65
270.65
270.65
270.65
270.65
270.65
785.892
225.617
333.839
678.973
270.65
268.947
270.65
270.65
270.65
270.65
667.911
386.35
270.65
270.65
270.65
270.65
270.65
270.65
270.65
270.65
752.614
259.946
615.203
270.65
270.658
233.03
740.409
233.631
270.7
270.65
270.65
363.532
391.109
270.65
270.629
270.65
203.022
270.65
270.65
272.449
508.055
270.65
228.031
270.65
270.65
252.336
270.65
270.65
270.65
270.65
270.65
270.65
615.55
270.65
270.65
270.65
529.838
270.65
270.65
268.368
270.65
258.701
270.65
297.907
270.65
623.378
269.113
270.65
795.22
270.65
270.65
270.65
270.702
270.621
307.972
270.65
270.65
270.65
493.478
270.65
270.65
270.65
270.65
270.65
270.65
270.65
270.65
270.664
270.65
270.66
773.444
270.65
270.65
421.734
727.753
761.152
270.65
270.65
270.65
270.65
270.65
270.65
856.478
362.775
229.533
270.655
536.21
517.252
270.65
270.65
326.132
270.65
270.65
270.65
806.783
270.65
607.759
270.65
270.65
858.322
270.869
270.65
215.254
270.65
663.854
297.175
270.65
270.65
562.372
270.65
270.65
679.485
270.65
234.572
270.65
270.65
270.65
270.65
270.65
265.449
270.651
504.654
270.65
270.653
270.65
586.563
237.908
270.65
270.543
252.398
270.65
270.65
270.65
295.425
274.262
270.65
772.605
270.65
475.199
310.012
270.65
270.65
270.65
248.503
270.875
215.205
270.65
270.65
769.915
270.65
270.65
270.65
391.545
270.65
752.991
270.65
270.65
267.424
270.65
266.719
270.65
270.65
270.65
270.65
270.65
533.117
270.65
270.65
270.65
270.65
354.653
270.65
270.65
270.65
270.65
523.407
270.65
270.65
270.644
472.289
520.692
236.942
270.65
663.454
465.265
501.803
270.65
686.589
270.65
270.649
270.65
350.478
270.65
270.65
270.65
270.65
270.65
558.966
423.891
270.65
270.65
286.801
270.65
682.884
394.532
270.65
270.65
270.65
261.102
270.653
208.452
270.65
543.77
270.65
270.65
270.65
270.65
270.65
625.53
270.65
484.834
270.65
337.852
526.353
270.65
415.485
726.319
270.65
270.65
270.65
270.65
270.65
270.65
270.65
680.504
270.65
270.65
270.65
270.65
270.65
270.65
270.65
270.65
232.177
202.356
270.65
270.65
270.65
270.65
270.65
270.65
493.021
270.65
270.65
270.65
347.952
270.65
270.65
270.65
270.65
435.952
270.65
270.65
270.65
270.65
234.778
405.27
231.261
270.65
353.028
240.576
807.584
270.65
270.65
270.65
270.65
673.401
270.651
270.65
240.583
270.654
270.65
270.65
270.65
270.65
233.48
270.65
270.65
266.604
270.65
381.932
716.588
306.737
270.65
270.65
470.896
270.65
232.541
231.078
270.65
270.65
336.901
270.65
544.387
579.332
626.849
231.619
270.65
270.65
751.887
270.65
270.65
270.65
270.65
712.641
528.895
270.65
270.65
465.549
270.65
270.65
270.65
751.167
259.228
270.642
270.65
225.331
270.65
270.65
270.65
270.65
270.65
270.65
270.65
270.65
270.65
608.208
528.412
270.65
270.65
270.65
270.65
270.634
651.524
270.65
234.911
402.106
270.65
270.65
270.65
270.65
270.65
257.631
232.946
270.65
507.007
270.65
270.65
270.65
270.65
270.65
270.65
270.648
270.65
270.685
270.65
382.719
229.097
270.65
445.176
424.89
270.65
270.65
480.982
692.628
270.65
270.65
784.176
270.65
259.547
270.744
270.65
270.65
270.666
867.058
232.65
270.65
254.569
270.65
233.014
305.745
270.65
765.087
270.65
513.129
270.65
270.65
270.65
781.282
576.424
478.022
798.59
410.335
406.116
270.65
497.445
270.65
270.65
270.65
270.65
270.651
270.65
270.65
270.65
642.284
763.121
270.65
270.65
517.079
270.65
365.003
240.211
270.65
270.65
241.515
270.65
270.664
517.266
258.129
270.65
546.446
438.957
270.65
270.65
270.65
534.225
243.18
676.776
270.65
270.65
270.65
580.161
270.65
270.65
270.65
270.65
270.65
270.65
270.65
270.65
270.65
270.65
270.65
236.917
270.65
270.628
270.65
270.65
270.65
556.755
270.65
270.65
693.442
270.65
701.909
270.65
514.197
270.65
813.06
270.65
270.65
541.46
270.65
270.65
267.057
270.99
546.111
270.65
270.647
270.65
270.65
531.233
312.237
270.65
270.65
270.65
270.65
270.65
270.656
270.65
270.65
270.65
270.65
545.538
270.65
270.65
866.925
601.631
270.65
270.65
270.65
270.65
270.629
270.651
270.65
269.366
270.65
247.993
270.65
782.349
270.65
270.65
270.65
270.65
270.65
269.023
232.212
270.65
227.8
270.65
591.284
270.65
270.65
270.65
270.65
270.648
248.243
270.65
270.65
235.551
487.63
270.65
270.65
422.483
243.597
267.031
359.512
270.65
270.65
270.65
270.65
270.65
734.313
270.65
270.65
643.92
270.65
363.622
270.65
270.006
270.65
364.271
270.65
264.504
673.739
270.65
810.3
361.047
270.65
270.65
270.65
672.023
566.04
270.65
270.65
321.091
270.65
270.65
270.65
270.65
756.137
270.65
270.65
270.65
270.65
501.396
270.65
262.955
289.083
270.65
270.65
216.225
270.65
270.65
270.65
270.65
270.65
512.639
270.65
734.67
270.65
270.623
232.466
270.65
270.65
270.65
270.65
266.496
566.928
270.65
270.65
270.65
270.65
270.65
270.65
270.65
270.639
860.496
270.65
270.614
272.694
606.838
270.65
270.65
208.824
270.65
357.978
270.65
270.65
239.23
269.233
790.053
235.061
271.394
270.65
311.744
270.65
610.159
270.65
270.65
270.65
427.018
270.65
270.65
406.575
270.65
270.65
213.979
338.116
270.65
602.239
270.65
270.65
532.535
536.823
270.65
222.063
270.65
270.65
530.984
231.082
270.65
287.688
270.65
270.65
647.717
270.65
270.65
270.65
270.65
270.65
270.65
867.435
684.952
270.65
710.852
270.65
316.962
270.65
270.65
270.65
270.65
232.421
382.185
338.37
270.65
517.988
322.688
282.935
432.272
550.609
270.651
264.694
270.65
270.65
270.65
270.65
270.65
689.552
270.65
385.927
270.65
270.667
724.318
337.756
270.65
270.65
270.65
231.032
270.65
786.726
579.285
704.057
358.402
270.65
583.676
270.65
481.662
516.904
643.392
270.65
270.65
486.273
580.265
738.861
558.287
270.65
270.65
270.65
376.619
685.033
809.047
270.65
270.65
392.294
270.656
234.305
270.65
270.65
270.65
232.308
270.65
270.65
270.65
270.65
646.224
270.65
270.65
270.65
270.65
270.65
270.65
270.65
600.315
270.65
270.65
315.738
551.714
710.599
270.65
267.399
270.65
846.63
270.65
270.65
270.65
270.65
270.65
270.597
270.65
240.924
270.65
270.65
270.65
245.956
269.438
337.277
270.65
232.602
237.685
270.65
270.65
270.65
437.091
261.453
270.65
807.068
247.567
270.65
270.65
270.65
270.65
270.65
364.995
293.158
270.65
270.65
712.904
245.844
494.559
270.65
681.7
270.65
270.65
431.95
270.65
226.818
270.65
270.65
270.65
270.65
520.66
270.65
270.65
270.65
270.65
270.65
270.65
270.652
270.65
270.652
389.572
743.754
270.65
377.394
788.591
270.65
235.708
270.65
343.706
270.65
270.65
270.65
354.782
789.668
427.825
370.849
342.854
620.441
270.65
268.124
273.046
270.65
270.65
270.656
346.33
249.36
270.65
413.721
757.21
799.299
270.65
738.354
657.981
270.649
269.77
270.65
270.65
270.65
336.004
270.65
270.65
270.666
228.826
270.652
331.598
270.65
273.33
270.65
270.65
270.65
318.156
270.65
270.65
270.65
270.65
270.65
271.641
434.889
270.65
264.574
270.65
270.65
423.709
310.964
300.228
427.784
270.65
445.749
270.65
270.65
231.171
270.65
536.05
270.651
307.359
270.65
270.65
270.65
270.648
643.32
270.65
270.65
359.791
604.117
297.572
269.64
732.41
270.65
267.401
270.65
270.65
270.65
270.65
601.676
270.65
270.65
620.344
270.65
270.65
270.65
270.65
270.65
270.65
270.65
270.65
270.65
270.65
270.65
270.65
270.65
270.858
805.781
270.65
270.65
270.651
270.65
207.141
270.65
695.334
272.408
387.769
270.65
270.641
315.758
270.65
270.651
269.996
270.65
606.721
270.65
270.65
270.65
677.085
379.045
390.923
270.65
234.032
270.65
270.65
270.65
270.65
270.65
634.694
249.54
270.707
270.65
516.096
270.65
270.65
210.482
740.195
270.65
357.795
270.65
680.006
379.775
270.637
270.65
270.65
260.725
275.997
270.65
270.65
271.011
244.139
802.899
270.65
270.65
715.733
549.28
270.65
270.65
241.508
369.077
382.602
229.315
487.525
270.65
653.172
270.65
270.65
270.65
270.65
270.65
270.909
270.65
270.65
270.649
270.65
270.65
270.644
605.905
270.65
270.65
270.582
494.652
376.273
506.062
234.196
270.65
543.529
368.027
653.842
270.65
253.516
270.65
773.863
270.65
595.644
243.953
817.963
270.65
611.847
270.65
270.65
270.65
350.536
270.65
270.65
270.65
270.65
807.129
270.65
398.568
586.595
270.65
270.65
270.65
270.65
270.78
290.198
270.65
270.65
270.65
270.65
270.927
247.91
270.65
270.686
270.65
261.408
270.65
270.65
726.797
270.65
270.65
270.65
270.65
270.65
376.301
847.972
263.008
270.65
711.854
270.649
217.546
267.576
270.65
233.056
413.583
270.65
270.65
474.853
270.829
270.65
270.65
528.023
270.65
270.65
270.65
270.65
270.65
219.659
270.65
270.65
270.65
270.652
533.857
232.944
771.095
270.65
270.65
270.65
270.65
270.65
404.831
235.269
270.65
270.65
772.311
272.095
270.65
270.65
265.822
270.611
747.126
303.631
656.447
270.65
270.65
343.888
270.65
270.65
270.65
270.65
764.956
246.225
270.65
270.65
334.343
751.733
280.688
270.65
596.812
203.259
270.65
460.467
270.65
270.65
270.65
270.65
270.65
270.65
270.65
270.65
520.571
270.65
270.65
270.648
270.65
519.441
484.291
270.65
270.65
270.65
270.65
270.65
264.557
271.469
227.928
270.65
270.65
597.845
270.65
270.664
270.65
270.65
270.65
270.65
270.65
254.967
270.65
270.65
204.675
270.65
300.433
790.099
270.65
270.65
270.65
270.65
270.65
270.65
270.65
270.65
270.65
270.65
507.998
270.65
409.648
270.65
567.344
270.65
270.65
565.359
270.65
270.65
270.659
371.84
348.46
270.65
270.65
216.841
659.3
270.65
270.65
496.519
270.65
270.65
270.65
504.557
270.65
616.858
270.65
270.65
270.65
270.65
621.832
270.65
284.411
270.65
270.65
270.64
270.65
270.65
377.535
267.075
270.65
270.65
270.65
486.221
320.5
270.65
270.65
270.65
641.84
227.867
270.65
270.65
271.446
270.65
231.365
270.65
232.439
628.67
270.65
270.65
373.043
270.65
270.651
270.65
270.65
270.65
270.65
270.65
339.241
270.644
795.288
270.65
270.65
270.65
270.65
270.65
270.65
384.661
270.65
270.65
270.65
270.65
270.65
353.443
270.65
471.354
270.65
460.269
270.65
222.192
540.74
270.65
574.444
270.65
270.65
270.65
376.676
405.302
270.65
270.65
344.576
270.65
618.414
270.65
416.18
515.234
270.65
270.65
270.65
270.65
270.65
270.65
379.069
270.65
270.65
758.487
270.65
270.648
309.111
269.736
270.65
322.093
270.65
270.65
270.713
270.65
270.65
226.112
270.65
270.65
270.65
270.65
298.809
270.65
668.67
270.65
270.65
784.579
270.65
270.65
270.65
280.864
394.562
266.415
397.683
270.65
271.158
270.65
638.76
346.802
222.92
270.65
402.484
270.65
270.65
763.416
270.65
602.636
258.351
270.65
304.452
270.65
270.65
270.842
270.65
270.65
669.449
270.65
216.182
270.65
270.65
270.65
270.65
270.65
231.159
270.65
270.65
235.714
270.65
270.65
388.077
232.339
374.083
270.65
836.324
270.65
270.65
270.65
664.793
270.65
270.65
292.591
537.502
255.024
594.854
270.65
270.657
270.65
267.175
324.318
270.65
636.332
267.793
270.65
492.63
270.65
270.65
433.595
270.65
516.445
270.64
270.65
270.65
393
270.663
270.65
270.65
270.65
790.365
270.65
629.674
270.65
380.455
270.65
270.65
236.868
508.145
270.65
270.65
270.65
270.65
408.183
270.65
270.65
299.802
306.427
201.539
270.65
270.65
268.597
270.65
270.65
270.65
270.65
270.7
579.96
270.65
497.929
270.65
270.65
243.009
270.65
270.65
270.65
270.65
213.603
779.034
556.737
270.65
561.22
270.65
278.394
270.65
270.65
270.65
638.751
270.65
245.952
359.142
270.65
275.802
339.734
270.65
262.056
270.65
270.645
270.65
270.65
261.558
229.514
232.82
662.409
320.525
270.65
270.65
270.65
270.65
270.65
270.65
270.651
231.279
270.65
270.65
230.451
318.839
270.65
270.65
270.65
270.65
270.651
253.2
232.769
389.058
270.651
701.275
270.648
270.65
270.65
270.648
270.65
270.65
270.65
270.65
705.317
505.686
489.621
270.65
550.366
270.65
368.591
236.28
694.033
270.65
270.65
270.65
390.713
481.014
625.444
430.258
194.653
525.025
270.65
496.32
270.65
270.65
437.506
270.65
301.663
270.655
270.65
270.65
270.65
453.316
212.217
270.65
270.65
270.65
270.649
226.907
768.267
270.65
219.155
434.808
270.65
270.65
357.529
270.65
270.65
270.65
270.65
209.227
372.445
561.393
433.165
270.65
256.924
270.65
270.65
422.005
270.65
270.65
270.65
429.237
270.65
314.493
270.65
270.65
270.65
236.909
270.65
270.65
270.65
270.65
270.65
824.808
270.65
270.65
270.65
632.094
660.199
270.65
802.309
270.65
249.26
234.072
270.65
270.65
375.888
314.578
270.65
270.651
270.65
458.479
587.019
718.78
269.985
439.833
270.65
296.338
270.65
270.65
270.652
270.65
692.094
455.084
270.65
270.658
270.65
347.062
270.65
270.65
270.65
553.669
302.375
270.65
270.65
270.646
270.65
270.65
270.63
270.65
270.65
270.65
270.65
483.055
747.816
270.65
270.65
490.456
270.65
270.708
270.65
270.498
270.65
478.937
270.65
270.65
270.65
551.612
270.65
255.508
270.597
231.275
270.65
270.65
433.088
678.282
286.971
454.012
270.65
265.61
415.269
270.65
270.65
297.759
761.387
270.65
270.65
270.65
458.535
270.65
270.65
350.367
270.65
430.09
270.65
291.232
270.65
270.65
680.656
270.65
575.691
270.65
275.175
270.65
270.65
498.882
270.65
270.65
270.65
270.65
270.615
270.65
270.65
270.65
806.179
572.559
478.839
270.646
527.01
241.908
270.65
488.428
270.65
270.65
270.648
270.65
270.65
520.543
661.617
538.54
270.65
270.65
270.65
270.65
270.65
571.376
270.65
533.525
292.583
270.65
287.996
643.686
368.128
280.162
270.65
270.65
270.656
270.65
270.65
371.64
270.65
508.431
231.608
270.65
270.65
652.531
381.743
270.65
270.65
464.712
343.284
270.65
382.362
229.511
772.077
270.65
270.65
751.914
331.921
270.65
869.038
270.65
749.76
494.899
270.65
669.526
270.697
683.095
270.65
230.854
719.734
296.332
270.65
270.65
270.65
270.65
685.03
270.65
270.646
270.65
270.65
270.65
270.65
270.65
270.65
269.515
270.65
270.65
265.266
231.963
229.513
272.394
270.65
270.65
270.65
749.295
232.963
270.65
221.05
270.65
270.649
270.65
745.818
270.65
603.57
359.868
270.699
585.583
270.65
430.532
270.65
270.65
641.25
270.65
753.393
270.65
717.619
370.768
270.65
270.65
270.65
220.22
377.582
247.881
270.65
270.65
525.731
270.65
822.479
270.65
270.65
270.64
270.65
248.488
272.388
582.723
300.84
270.65
723.215
270.65
225.47
270.65
366.122
270.65
556.584
270.65
452.233
323.887
462.063
270.65
270.65
569.477
270.65
270.65
270.656
270.65
270.65
274.983
270.65
270.65
270.65
439.121
270.65
270.65
271.316
270.957
270.65
270.65
498.206
695.703
270.65
270.65
270.65
222.866
270.655
270.65
715.893
291.37
515.311
770.398
270.65
270.65
270.65
270.65
237.701
270.65
231.721
280.496
270.65
270.65
270.65
270.65
270.65
270.65
395.295
253.882
588.647
270.65
270.65
270.65
519.104
855.86
270.65
270.65
551.417
606.193
615.602
270.65
265.714
270.65
577.687
270.65
477.805
267.347
231.637
577.56
270.65
270.65
293.744
270.65
555.182
776.322
270.65
270.65
270.65
766.929
466.936
309.864
270.65
236.708
270.65
273.443
736.043
270.65
270.65
270.65
492.34
230.41
270.65
280.821
223.771
345.346
270.65
696.555
680.49
233.142
270.65
225.455
270.65
270.65
270.65
270.65
270.65
270.65
684.218
270.65
270.65
270.65
270.65
615.152
270.65
711.255
270.65
270.65
206.64
270.65
270.65
270.65
270.65
270.649
223.867
270.65
270.65
285.655
270.65
270.65
350.583
302.095
270.65
270.65
718.545
270.65
359.827
270.65
270.65
270.65
487.707
270.65
230.719
603.133
600.352
270.65
346.182
725.904
270.65
335.401
270.65
270.65
354.146
257.014
270.65
270.65
304.594
270.65
682.795
270.65
352.815
270.65
386.976
266.044
270.65
647.097
270.65
270.65
270.65
579.152
270.65
505.553
736.304
270.65
458.938
641.352
270.65
270.65
270.65
584.615
260.99
270.65
666.537
270.65
270.65
270.65
270.65
774.829
270.65
615.88
270.65
270.65
270.65
259.293
270.65
362.443
270.65
270.653
270.65
270.721
370.32
270.65
614.739
300.002
270.65
302.31
270.65
556.683
270.65
231.396
209.544
372.117
270.65
270.65
270.65
365.86
765.292
270.65
270.65
270.65
270.65
573.786
270.65
270.65
270.65
270.65
270.65
459.18
270.65
270.65
270.65
574.164
294.046
270.65
270.65
270.65
270.65
270.65
781.897
412.686
721.899
270.65
270.65
270.65
723.034
506.989
629.96
270.65
270.652
270.65
618.231
501.332
590.26
270.65
270.65
230.443
270.65
270.65
270.65
270.65
270.137
239.01
855.503
270.65
270.65
232.24
270.65
654.531
776.243
270.65
270.65
522.449
270.65
270.65
407.039
270.65
270.65
270.65
196.694
360.411
551.898
270.65
270.65
425.777
441.174
270.65
220.738
270.65
270.65
270.661
230.489
270.65
455.296
481.193
563.255
274.592
585.15
343.458
270.65
270.65
480.528
270.65
736.954
437.523
270.65
426.612
270.65
749.986
270.65
270.65
456.392
270.65
792.987
530.666
270.65
270.65
744.77
396.04
222.17
270.65
571.552
216.127
571.178
834.926
270.65
270.652
572.656
741.788
270.65
267.047
270.65
371.227
270.65
270.65
270.65
336.269
270.65
270.65
270.65
270.873
728.286
590.295
790.539
373.95
548.524
270.65
201.667
270.65
270.65
270.65
540.657
262.15
270.657
229.055
270.65
270.65
270.65
270.65
270.65
291.542
270.65
270.65
555.824
270.65
712.181
270.65
270.65
270.65
339.88
270.65
877.404
334.531
270.65
270.65
270.65
270.65
270.65
270.65
270.65
270.65
270.65
270.669
270.65
287.152
351.085
270.65
270.65
270.65
369.609
270.65
270.65
270.65
270.65
270.65
364.558
590.092
270.65
270.65
200.561
328.545
270.65
709.407
270.65
270.65
402.328
413.376
270.65
270.65
270.65
730.79
270.65
270.65
270.65
270.65
736.033
270.65
251.039
270.65
270.642
383.983
270.65
270.65
231.726
840.357
252.802
198.761
233.102
270.65
760.49
270.65
270.65
270.65
364.624
270.738
270.65
729.702
270.65
684.129
503.077
270.65
270.65
340.138
270.65
270.65
270.65
270.65
593.438
270.65
271.194
270.65
538.934
270.65
813.358
270.635
270.65
270.65
270.65
497.592
270.65
270.672
270.031
270.65
410.477
270.657
270.648
243.553
270.65
410.134
495.294
270.65
425.21
381.376
270.65
481.859
700.037
270.65
270.65
270.65
440.937
270.65
270.65
232.873
501.651
433.078
432.321
587.29
423.329
270.65
270.65
640.89
693.39
270.65
270.65
270.65
340.387
287.163
270.65
771.858
559.366
270.65
270.65
270.65
270.65
270.65
270.715
270.65
270.65
377.863
270.573
365.581
270.65
270.65
270.65
270.65
438.799
274.899
531.823
725.914
316.051
417.894
778.731
225.439
270.65
270.65
270.65
771.827
234.411
241.071
323.861
270.65
503.492
270.65
270.65
718.056
270.65
270.65
564.305
270.65
270.65
849.218
390.832
270.65
270.65
716.98
711.818
270.65
583.705
270.65
773.861
737.208
359.889
270.65
549.319
270.65
398.56
270.65
270.65
270.65
270.65
270.65
720.012
270.65
270.65
236.37
270.65
346.436
341.374
294.51
270.65
232.58
270.649
270.649
672.263
270.65
213.599
221.687
270.65
444.146
270.65
728.218
276.862
270.65
270.65
270.65
262.76
337.719
214.58
270.65
424.23
715.394
288.486
398.065
270.65
213.303
270.65
295.927
337.12
447.264
813.382
270.65
270.65
270.65
725.145
482.414
270.65
661.632
270.65
579.689
270.65
223.552
270.65
270.653
620.934
270.65
600.1
355.718
719.962
270.65
761.129
270.65
471.964
270.65
270.624
270.65
270.65
270.65
628.909
270.65
270.65
374.683
676.226
270.65
219.666
407.534
273.579
270.65
270.65
223.173
270.65
654.92
787.912
429.818
250.366
464.135
293.151
780.309
271.18
270.65
270.656
673.956
368.67
270.65
270.65
270.65
270.65
270.65
229.947
598.831
270.65
271.243
475.444
293.306
270.65
270.65
269.022
270.65
401.395
270.65
755.199
759.52
270.65
586.832
270.65
470.596
270.65
270.65
668.03
297.872
774
270.65
270.65
535.646
821.853
270.65
200.736
270.65
271.814
270.65
270.651
228.234
270.65
752.385
420.165
270.65
270.65
449.497
270.65
270.65
270.65
270.65
270.65
270.65
270.65
270.65
250.781
217.292
270.65
270.65
270.65
270.65
270.65
712.396
270.65
274.011
270.65
270.65
359.861
270.65
270.65
270.65
270.65
658.876
270.65
293.003
785.974
270.65
270.65
223.27
577.474
270.752
776.173
270.65
330.433
641.585
724.839
834.2
270.65
438.396
270.65
270.65
219.303
703.028
730.982
270.65
762.355
270.651
270.65
683.493
270.65
584.258
270.65
706.549
270.659
547.077
270.65
586.959
270.65
270.65
652.18
338.313
270.65
270.65
270.386
734.95
270.762
270.651
270.65
548.778
270.65
663.414
270.65
270.65
507.499
658.449
513.933
561.705
711.326
534.091
460.018
554.311
267.833
270.65
270.65
270.65
340.608
279.093
270.65
701.631
398.751
334.596
270.65
383.471
726.404
318.346
270.65
270.65
270.65
658.048
270.65
555.945
270.65
270.65
266.4
270.65
270.622
394.317
270.65
270.65
518.152
270.65
291.842
270.65
662.938
311.726
270.994
538.239
270.65
270.65
270.65
270.65
270.65
270.65
365.118
270.65
797.915
270.551
270.65
270.651
270.65
270.65
660.049
270.65
244.923
270.65
270.65
765.777
707.259
731.4
270.65
517.672
270.65
720.606
270.65
270.65
270.65
777.956
403.385
270.65
270.65
389.345
270.65
269.48
270.65
270.65
435.723
270.65
270.65
342.826
270.65
270.65
270.65
270.648
718.835
616.1
270.65
270.65
558.091
231.425
638.805
270.65
228.815
435.155
358.765
270.65
267.787
270.65
270.65
270.65
270.65
764.513
270.65
270.65
300.253
664.654
270.65
270.65
270.65
356.948
728.402
389.376
578.203
270.65
547.318
270.65
743.601
403.387
270.653
270.65
642.552
487.36
270.65
234.53
233.759
809.834
270.65
690.939
410.501
455.832
593.97
709.624
719.553
270.65
270.65
270.65
245.777
730.432
767.789
376.118
249.508
269.127
373.082
653.949
342.409
366.541
270.65
859.429
270.65
406.539
380.532
273.02
270.65
315.763
565.193
270.65
726.562
270.65
270.65
584.705
708.394
270.65
270.65
270.65
270.65
270.647
270.65
382.195
416.601
270.427
270.65
270.65
270.65
270.65
640.84
270.65
270.65
356.077
270.65
395.945
270.65
685.526
270.65
270.65
271.133
396.038
270.65
372.347
461.326
270.65
296.564
271.156
270.65
610.103
270.65
356.167
424.599
736.554
270.65
270.65
270.65
525.851
270.65
380.491
425.82
737.209
222.709
270.65
580.309
671.831
652.123
270.65
270.65
373.109
443.535
273.227
270.65
530.136
354.876
357.712
443.836
494.591
270.65
728.147
512.852
270.65
217.739
225.805
270.65
270.65
658.608
237.303
270.65
269.973
270.707
587.055
270.65
270.65
228.521
563.277
529.017
270.65
363.827
309.479
270.65
239.119
270.65
646.28
270.65
321.883
242.441
270.65
270.65
270.65
270.65
270.65
402.59
270.65
227.725
573.742
270.65
644.582
269.456
270.65
270.65
270.65
270.65
518.154
270.65
270.65
782.776
249.737
270.65
733.51
586.463
239.613
270.65
796.478
285.709
620.132
270.65
579.902
270.65
606.521
704.337
270.65
270.65
468.605
270.65
270.65
270.65
344.856
270.65
270.65
270.65
270.65
270.65
270.65
364.66
503.269
270.65
270.65
376.18
270.65
790.878
695.865
659.504
270.65
270.65
270.65
527.594
291.755
358.251
270.65
205.1
246.758
653.832
421.273
270.65
270.65
270.65
270.65
376.687
270.65
268.68
704.314
232.308
270.65
270.65
386.45
270.65
270.65
270.65
270.706
522.629
270.65
457.552
659.77
573.575
270.65
279.023
270.65
476.496
401.139
270.65
569.333
270.65
360.477
270.65
270.962
270.65
586.441
270.65
582.748
270.65
297.648
604.758
527.478
542.338
270.65
795.243
454.582
224.447
270.768
460.217
270.65
352.883
589.727
709.742
270.65
718.26
270.65
270.65
244.712
370.745
296.111
368.671
327.679
270.65
719.137
772.645
270.65
269.189
447.701
270.651
451.418
743.903
270.65
270.65
270.65
273.949
270.65
270.65
270.65
270.593
602.73
342.975
270.65
479.481
736.676
270.65
270.65
414.445
774.407
467.144
270.65
470.195
282.854
270.65
329.043
349.734
296.487
270.65
270.65
724.956
329.999
270.65
248.332
699.746
270.65
772.666
742.84
270.65
270.65
270.65
270.65
270.65
580.261
270.716
655.339
724.415
270.65
270.652
633.49
551.077
385.778
518.159
534.328
636.54
314.846
262.8
283.938
325.474
270.65
270.65
270.65
270.65
476.054
473.364
270.671
270.65
270.65
270.65
270.65
560.437
760.587
270.797
601.625
580.04
270.65
616.704
270.613
270.65
270.65
270.65
471.914
270.65
270.65
231.699
270.65
265.117
270.65
270.65
270.65
270.65
506.627
349.985
518.204
698.46
229.709
270.65
370.023
297.419
361.693
652.171
270.65
579.566
587.016
215.691
578.326
302.039
289.361
270.65
326.483
596.385
640.943
274.906
429.272
291.029
231.904
404.971
486.342
289.161
727.135
270.65
270.65
270.65
270.65
230.456
462.864
270.65
270.65
270.65
330.984
270.65
270.65
270.835
502.146
270.65
721.637
259.805
270.66
297.814
420.553
579.231
269.13
270.65
270.65
615.329
270.65
270.65
270.65
270.65
330.644
270.65
471.185
517.013
270.65
270.648
270.65
270.653
270.65
270.65
201.033
701.119
597.133
806.743
266.888
270.65
270.65
317.968
265.838
271.017
270.65
270.65
270.683
270.65
619.601
595.32
270.65
577.914
620.394
270.665
272.113
291.472
263.611
375.348
270.65
348.232
270.65
270.65
270.65
270.65
270.65
270.65
705.562
270.65
270.65
485.622
270.65
270.65
270.65
270.65
270.645
371.55
259.846
477.804
270.649
462.448
270.65
604.338
270.65
270.65
270.65
270.65
404.957
270.65
270.65
601.175
513.582
533.436
657.622
270.65
270.65
623.057
398.273
464.614
270.65
694.292
260.133
361.62
441.675
270.65
513.369
252.478
612.713
270.65
735.207
270.65
269.751
270.65
270.65
270.65
423.556
333.331
530.809
269.443
270.65
709.874
489.143
270.65
270.65
270.65
596.666
314.367
270.65
270.65
383.536
270.651
270.65
481.554
270.598
270.65
270.65
270.65
389.669
567.06
348.991
651.765
512.4
270.65
693.493
350.056
780.005
270.65
205.476
306.102
282.981
270.65
577.032
698.016
270.65
679.148
270.65
486.672
270.65
461.083
527.54
233.837
270.65
578.622
270.723
784.92
270.65
231.742
270.65
270.65
270.65
270.65
486.116
270.65
722.4
270.65
283.61
273.548
272.379
299.905
270.65
263.944
434.445
678.466
240.444
697.048
723.596
285.441
479.095
270.65
270.65
489.866
414.254
270.65
706.696
270.65
270.65
270.65
663.133
490.287
270.65
270.65
270.65
270.65
279.543
288.068
270.65
270.65
346.819
270.65
426.114
519.01
270.65
662.05
405.609
270.65
414.664
362.982
314.239
270.65
270.65
650.866
270.65
540.496
270.65
270.65
559.222
270.637
388.242
263.056
393.725
271.202
270.65
270.65
270.65
270.65
271.936
415.676
353.414
415.428
270.628
626.275
270.65
270.65
270.65
311.95
270.65
287.154
270.65
491.065
365.043
522.177
236.62
270.649
590.454
438.901
270.649
280.615
270.65
490.886
648.641
596.118
669.749
270.65
335.497
270.65
270.647
270.65
270.52
668.482
270.65
423.665
658.103
270.65
222.979
270.65
270.65
270.651
270.828
565.673
270.65
518.751
833.655
597.748
270.65
203.109
270.65
556.385
270.9
270.65
665.989
736.349
234.864
491.494
575.438
684.807
677.724
561.516
270.65
270.65
270.65
777.586
270.65
233.15
231.518
270.65
270.65
270.686
270.65
270.65
412.89
270.65
270.65
559.495
550.222
262.87
482.426
270.65
519.452
270.65
270.65
342.129
270.511
270.65
369.496
270.65
270.651
270.649
460.883
672.269
270.65
452.26
478.136
442.593
731.133
270.65
425.707
445.728
270.648
270.65
270.647
270.65
270.65
435.315
270.65
343.021
459.592
650.847
430.241
300.548
322.538
870.247
366.665
571.487
510.487
270.651
270.65
472.547
444.646
270.65
435.42
358.746
270.65
270.65
394.403
270.65
487.113
679.716
515.29
270.65
610.819
270.65
473.315
600.003
270.65
330.91
270.652
270.65
477.439
270.65
270.65
270.761
270.642
270.65
708.8
270.65
270.65
270.65
468.645
385.246
270.65
270.65
270.65
274.5
462.485
264.837
594.98
287.766
270.65
450.455
353.011
341.188
397.861
469.27
296.415
270.65
270.65
704.215
270.65
270.651
270.65
772.223
416.456
270.65
358.72
270.65
513.416
389.538
270.65
270.652
461.126
485.126
270.65
484.93
471.574
270.548
209.235
471.475
379.427
386.791
270.65
229.107
270.65
325.189
424.806
270.65
320.4
237.394
270.652
454.911
270.65
504.247
643.944
378.429
643.793
270.648
393.134
266.227
270.65
450.04
563.776
660.368
393.176
407.841
682.966
521.411
281.749
417.071
600.564
514.861
369.992
210.496
592.832
518.117
449.126
270.65
391.987
649.063
845.176
270.65
532.421
270.65
270.65
617.427
270.65
270.65
270.65
747.994
270.65
270.617
553.066
270.65
270.65
473.157
270.65
369.498
289.63
400.489
503.586
270.65
693.586
233.383
311.303
379.107
569.499
270.65
270.633
673.896
419.211
590.199
270.65
591.181
270.65
585.934
270.65
505.864
270.65
374.59
365.017
270.65
270.65
408.707
270.65
270.65
251.094
287.307
503.639
270.65
289.365
304.007
611.163
276.39
270.65
270.65
324.068
228.479
270.65
270.65
231.137
507.856
270.65
270.65
416.465
270.65
270.65
270.65
606.949
270.65
596.994
270.651
270.65
281.112
693.134
270.65
285.663
270.65
440.179
605.61
270.65
270.65
432.938
806.228
631.635
270.65
270.65
621.857
270.65
270.65
270.65
270.65
506.829
601.472
270.65
394.432
377.556
270.65
387.929
265.361
270.65
289.853
431.619
412.159
270.65
714.849
501.336
270.65
270.65
440.586
488.674
369.209
378.454
310.322
270.65
306.468
717.041
270.65
270.65
388.365
270.652
270.648
523.516
337.561
317.323
510.062
270.65
545.602
270.65
270.726
672.291
428.965
531.116
270.65
270.65
583.941
439.966
408.598
270.608
270.65
339.389
270.65
364.181
573.251
270.65
270.65
401.688
293.728
270.65
721.931