/*--------------------------------*- C++ -*----------------------------------*\
| =========                 |                                                 |
| \\      /  F ield         | OpenFOAM: The Open Source CFD Toolbox           |
|  \\    /   O peration     | Version:  2406                                  |
|   \\  /    A nd           | Website:  www.openfoam.com                      |
|    \\/     M anipulation  |                                                 |
\*---------------------------------------------------------------------------*/
FoamFile
{
    version     2.0;
    format      ascii;
    arch        "LSB;label=32;scalar=64";
    class       volVectorField;
    location    "0.0003999810138";
    object      U;
}
// * * * * * * * * * * * * * * * * * * * * * * * * * * * * * * * * * * * * * //

dimensions      [0 1 -1 0 0 0 0];

internalField   nonuniform List<vector> 
17141
(
(990 1.09474e-11 0)
(990 -6.24912e-11 0)
(990 1.10632e-11 0)
(990 1.48532e-05 0)
(990 1.00285e-11 0)
(990 -3.53101e-06 0)
(990 1.95347e-05 0)
(858.882 152.641 0)
(990 1.87695e-07 0)
(990 3.56394e-08 0)
(990 4.31184e-12 0)
(990 -4.5885e-11 0)
(419.09 -340.835 0)
(990 2.55997e-11 0)
(875.248 -112.996 0)
(990 -1.0646e-08 0)
(990 -1.77033e-11 0)
(990 -6.24523e-06 0)
(988.041 -2.39381 0)
(836.309 -159.777 0)
(990 -4.37577e-11 0)
(990 -5.11975e-12 0)
(990 -4.57885e-10 0)
(957.013 368.32 0)
(990 -1.18004e-11 0)
(990 1.75212e-11 0)
(990 -1.82781e-09 0)
(990 -6.17033e-12 0)
(914.686 -291.741 0)
(1028.67 70.6426 0)
(990 1.4041e-05 0)
(990 -1.93736e-11 0)
(990 -5.33802e-11 0)
(990 2.45458e-06 0)
(784.85 262.331 0)
(1044.34 24.402 0)
(990 -4.91527e-11 0)
(989.999 -3.04921e-05 0)
(990 8.15614e-12 0)
(990 -1.19361e-08 0)
(1060.48 162.669 0)
(990 0.00837621 0)
(990 2.21202e-10 0)
(83.0751 -49.5684 0)
(929.118 283.47 0)
(990 9.96204e-10 0)
(989.457 1.14136 0)
(1049.24 46.7608 0)
(990 2.82828e-12 0)
(990 -7.79725e-10 0)
(990 1.19282e-11 0)
(990 2.39879e-11 0)
(990 -1.242e-10 0)
(989.76 0.142127 0)
(990 -5.12891e-11 0)
(990 -0.00033206 0)
(990 -5.04042e-06 0)
(990 -7.90603e-12 0)
(989.796 -1.71782 0)
(990.001 -0.000820755 0)
(947.117 550.026 0)
(990 2.68312e-10 0)
(960.531 -48.776 0)
(990 7.96241e-12 0)
(990.006 -0.00255934 0)
(990 -5.16324e-08 0)
(990 -5.57702e-11 0)
(990 1.98449e-08 0)
(990 -3.10373e-11 0)
(990 -6.67416e-11 0)
(1045.56 370.691 0)
(310.363 -257.481 0)
(990 6.91389e-09 0)
(990 -4.3766e-11 0)
(990 4.79843e-12 0)
(990 5.79687e-12 0)
(990 1.17102e-11 0)
(886.64 268.764 0)
(380.436 263.538 0)
(990 -6.24218e-12 0)
(990 2.56578e-11 0)
(989.904 0.0517613 0)
(990 4.14235e-05 0)
(990 -7.81775e-12 0)
(990 4.40733e-09 0)
(410.138 -344.964 0)
(990 -3.86425e-12 0)
(1035.49 96.8093 0)
(990 -2.10583e-09 0)
(990 1.15924e-11 0)
(990 -8.32611e-12 0)
(990 4.06239e-06 0)
(1085.79 -300.908 0)
(1015.86 -134.223 0)
(990 -5.65498e-07 0)
(990 -4.57548e-12 0)
(990 3.88531e-11 0)
(990 -5.8887e-11 0)
(990 -1.54354e-10 0)
(990 -3.60625e-09 0)
(990 -5.37039e-12 0)
(990 8.27376e-08 0)
(990 1.71575e-11 0)
(990 6.68547e-12 0)
(990 -2.00798e-11 0)
(96.6868 -81.3505 0)
(990 -9.86787e-11 0)
(776.671 304.633 0)
(990 -2.25985e-12 0)
(990 3.0592e-12 0)
(892.942 -162.57 0)
(990 5.13642e-05 0)
(989.998 -0.00111378 0)
(990 -1.29499e-07 0)
(990 -5.71381e-11 0)
(1062.59 201.999 0)
(990 4.75798e-11 0)
(990 2.42637e-09 0)
(990 5.83494e-07 0)
(990 -3.67169e-05 0)
(990.001 0.0392802 0)
(990 1.50228e-12 0)
(990 -1.23746e-13 0)
(990 1.70106e-09 0)
(990 1.9743e-08 0)
(990 -9.78491e-07 0)
(990 -3.90739e-05 0)
(1002.66 -76.3915 0)
(990 -3.25386e-13 0)
(990 -1.93178e-09 0)
(990 -1.57124e-06 0)
(990 -1.85636e-13 0)
(949.284 -357.501 0)
(990 3.01027e-12 0)
(791.275 26.1992 0)
(884.535 577.117 0)
(839.293 174.662 0)
(989.998 -0.00334654 0)
(990 -2.01516e-09 0)
(811.046 188.416 0)
(990 -2.1534e-10 0)
(990 -1.02693e-10 0)
(990 -4.12444e-12 0)
(989.968 -0.00871202 0)
(306.758 -338.686 0)
(990 5.64595e-12 0)
(175.901 248.407 0)
(990 6.06637e-11 0)
(923.571 -280.678 0)
(990 -3.75747e-12 0)
(1009.48 -146.041 0)
(990 2.24233e-07 0)
(328.597 -267.794 0)
(909.126 291.207 0)
(990 1.32897e-11 0)
(990 1.4709e-11 0)
(990 -4.43433e-11 0)
(1005.72 -85.824 0)
(990 -5.02878e-11 0)
(990 -1.4833e-12 0)
(990 -1.04676e-11 0)
(990 -9.13144e-06 0)
(990 2.978e-08 0)
(990 -3.26953e-08 0)
(990 -0.000356349 0)
(990 -1.06485e-11 0)
(788.539 263.078 0)
(990 -1.18037e-08 0)
(990 1.51868e-11 0)
(990 -1.64586e-11 0)
(990 -3.65426e-11 0)
(990 -1.59232e-11 0)
(990 -3.0672e-11 0)
(990 8.08324e-12 0)
(205.737 281.889 0)
(912.728 208.446 0)
(1051.94 159.449 0)
(425.096 -347.173 0)
(990 -3.52663e-09 0)
(1083.77 -343.792 0)
(990 -1.42053e-11 0)
(990 -5.28925e-11 0)
(990 -1.90651e-08 0)
(990 1.19892e-11 0)
(436.53 -347.001 0)
(957.714 132.256 0)
(990 -2.5786e-11 0)
(990 -4.91387e-11 0)
(990 2.71668e-07 0)
(990 -2.79388e-11 0)
(990 -4.2196e-11 0)
(990 1.62701e-07 0)
(990 -1.10394e-11 0)
(990 -8.91937e-11 0)
(319.909 -343.764 0)
(1004.23 14.5525 0)
(528.155 -351.981 0)
(990 -1.33876e-06 0)
(989.868 0.0246548 0)
(787.523 2.18017 0)
(454.131 -375.652 0)
(851.927 177.28 0)
(989.951 0.0760752 0)
(990 -4.11602e-08 0)
(990 5.11982e-07 0)
(981.071 101.559 0)
(949.545 148.014 0)
(990 -2.05713e-11 0)
(989.962 -0.0398769 0)
(990 3.23363e-12 0)
(973.106 309.629 0)
(990 1.83816e-08 0)
(990 1.5693e-08 0)
(971.208 -1.24398 0)
(808.387 208.349 0)
(990 0.000145842 0)
(910.195 195.14 0)
(990 -4.18225e-11 0)
(990 -4.48254e-09 0)
(1063.41 187.303 0)
(990 1.90024e-11 0)
(990 1.00238e-10 0)
(990 3.28317e-13 0)
(990 5.25553e-08 0)
(990 -4.87463e-06 0)
(990 -3.1235e-08 0)
(807.601 -68.7088 0)
(990 -9.16593e-12 0)
(990 9.50013e-11 0)
(990 -2.08979e-08 0)
(665.288 -380.515 0)
(990 1.13942e-09 0)
(990 6.71648e-06 0)
(1085.32 -322.796 0)
(990 -5.24034e-11 0)
(1061.85 151.486 0)
(990 6.09351e-08 0)
(1045.11 21.4536 0)
(990 -1.49621e-10 0)
(796.256 -40.3986 0)
(991.792 6.8045 0)
(990 -0.0011935 0)
(191.321 276.975 0)
(990 7.81077e-06 0)
(990 -2.18842e-09 0)
(990 3.62288e-09 0)
(990.79 0.203767 0)
(990.159 -0.0825904 0)
(1037.84 22.9776 0)
(990 1.96139e-12 0)
(990 -1.12563e-11 0)
(990 -0.000151549 0)
(872.287 -150.54 0)
(990 -6.29309e-06 0)
(990 -1.13457e-06 0)
(989.999 -0.000230371 0)
(990 -5.88636e-11 0)
(990 -1.34033e-11 0)
(990 -6.39479e-09 0)
(990 -4.74384e-11 0)
(990 8.68849e-12 0)
(989.889 -0.023119 0)
(990 3.47474e-11 0)
(990 0.0340591 0)
(247.233 -312.637 0)
(990 -1.2973e-10 0)
(990 1.40063e-07 0)
(961.276 46.9882 0)
(356.451 260.392 0)
(271.331 311.222 0)
(990 1.23662e-11 0)
(990 -2.07951e-09 0)
(990 -1.24536e-09 0)
(990 6.17797e-12 0)
(990 -4.15031e-12 0)
(990 -7.21477e-09 0)
(-103.156 13.3405 0)
(976.043 129.923 0)
(882.774 -180.008 0)
(989.996 0.0169385 0)
(689.131 -306.719 0)
(705.509 -331.764 0)
(990 1.11616e-11 0)
(990 -1.20911e-05 0)
(1059.36 186.931 0)
(990 0.00011164 0)
(990 -2.61235e-09 0)
(990 -1.13213e-10 0)
(132.736 198.78 0)
(990 -4.08342e-09 0)
(689.088 -503.873 0)
(990 -2.02518e-12 0)
(990 -2.0068e-08 0)
(237.71 122.02 0)
(990.256 0.598236 0)
(990 -4.56079e-06 0)
(1042.16 367.715 0)
(990 -8.04439e-07 0)
(702.768 306.722 0)
(1039.29 41.2324 0)
(990 6.13804e-12 0)
(990 -6.01621e-07 0)
(607.355 379.006 0)
(990 -8.16247e-12 0)
(990 -3.39693e-11 0)
(467.033 348.306 0)
(990 7.83111e-09 0)
(841.359 117.214 0)
(990 -5.52852e-11 0)
(990 7.4782e-12 0)
(990 -1.2545e-06 0)
(990 -4.37181e-07 0)
(990 -5.2781e-08 0)
(1033.02 -531.171 0)
(990.001 -0.00258188 0)
(752.854 -320.934 0)
(990 6.66398e-10 0)
(990.004 -0.00707261 0)
(990 0.000382689 0)
(553.782 353.337 0)
(1071.62 428.176 0)
(990 0.000409504 0)
(991.471 0.57947 0)
(1012.17 -89.6278 0)
(990 -2.20536e-08 0)
(990 -4.554e-05 0)
(990 -7.87609e-06 0)
(1039.56 41.7999 0)
(1054.13 488.804 0)
(990 -1.79038e-12 0)
(257.213 -322.552 0)
(990 1.19461e-11 0)
(799.528 255.091 0)
(941.976 69.8379 0)
(990 3.47701e-11 0)
(990 -3.57736e-12 0)
(990 1.66264e-10 0)
(1009.93 -103.812 0)
(990.347 -0.137302 0)
(901.632 -259.823 0)
(990 -5.45041e-11 0)
(990 -3.05366e-08 0)
(239.452 -302.304 0)
(990 3.82099e-11 0)
(990 1.69248e-11 0)
(990 -4.3814e-06 0)
(929.723 281.634 0)
(990 7.34031e-12 0)
(228.676 226.603 0)
(990 -2.24126e-12 0)
(990 -4.99935e-11 0)
(1058.85 483.495 0)
(990 3.9022e-06 0)
(1026.68 -16.2123 0)
(990.002 -1.59695e-08 0)
(990 -2.04981e-08 0)
(990 2.81943e-11 0)
(990 -6.35077e-09 0)
(990 -1.07522e-11 0)
(690.846 -309.619 0)
(990 1.76662e-11 0)
(990 -3.73994e-11 0)
(990 1.16252e-11 0)
(990 -1.04011e-09 0)
(986.34 92.6899 0)
(990 1.48833e-11 0)
(990 -1.1372e-09 0)
(990 -1.30598e-05 0)
(990 -2.94402e-07 0)
(716.559 -296.564 0)
(990 -1.16144e-11 0)
(990 -6.62971e-12 0)
(989.948 0.00738708 0)
(801.923 255.871 0)
(701.326 -329.84 0)
(1002.72 -144.837 0)
(990 -1.95474e-11 0)
(448.923 -346.904 0)
(929.476 -376.981 0)
(850.948 -175.6 0)
(990 2.04008e-11 0)
(489.418 345.755 0)
(990 3.63641e-12 0)
(990 0.00245857 0)
(990 -3.04433e-11 0)
(1000.13 50.6414 0)
(990 5.31325e-10 0)
(990 -8.06706e-10 0)
(990 -3.83094e-11 0)
(990 -2.25231e-11 0)
(990 -7.47662e-05 0)
(619.773 372.384 0)
(965.237 -43.5228 0)
(990 -1.99114e-11 0)
(990 -1.75088e-12 0)
(1069.6 348.463 0)
(990 -1.26154e-07 0)
(382.839 -335.732 0)
(492.613 22.0531 0)
(990 -1.0218e-12 0)
(990 -1.14589e-12 0)
(990 -2.75171e-08 0)
(984.044 -32.8102 0)
(989.999 0.00935328 0)
(908.265 319.612 0)
(990 3.26418e-12 0)
(753.301 -532.883 0)
(990 -1.65716e-11 0)
(990 -2.39136e-13 0)
(990 -2.3547e-11 0)
(990 5.11561e-08 0)
(990 -9.5963e-07 0)
(600.524 326.823 0)
(990 -2.84034e-10 0)
(913.351 -59.5553 0)
(990 -4.51104e-12 0)
(1047.92 128.068 0)
(712.703 -293.918 0)
(990 -4.89269e-11 0)
(843.754 209.55 0)
(321.956 326.549 0)
(990 -1.35355e-11 0)
(990 1.07394e-11 0)
(990 -6.71689e-06 0)
(990 4.566e-11 0)
(990 1.07558e-06 0)
(990 -1.88518e-11 0)
(990 3.14689e-12 0)
(394.433 -341.7 0)
(990 7.42955e-07 0)
(990 1.09307e-06 0)
(990 1.93103e-07 0)
(990 -8.86456e-11 0)
(990 9.1345e-12 0)
(990 1.57021e-07 0)
(990 1.04024e-11 0)
(990 -5.6007e-11 0)
(833.544 -110.933 0)
(969.702 328.137 0)
(990 3.64611e-08 0)
(990 -2.29781e-11 0)
(990 2.09482e-11 0)
(990 1.00409e-10 0)
(990 3.6023e-11 0)
(990 2.51519e-09 0)
(832.756 195.323 0)
(990 -3.93035e-12 0)
(990 -2.60062e-08 0)
(990 -1.03952e-08 0)
(994.796 88.5937 0)
(990 -1.30588e-09 0)
(990 7.17348e-07 0)
(990 -2.52105e-11 0)
(990 -1.47635e-07 0)
(899.683 -159.083 0)
(990 -1.52057e-11 0)
(990 1.59432e-11 0)
(990 1.0898e-11 0)
(990 -5.41245e-10 0)
(928.262 149.79 0)
(996.826 -29.5925 0)
(844.874 79.1544 0)
(990 -5.16235e-11 0)
(999.332 47.3969 0)
(1073.83 436.525 0)
(150.893 -241.69 0)
(990 8.44447e-12 0)
(990 1.53345e-12 0)
(990 1.7787e-10 0)
(990 1.58479e-11 0)
(424.759 -325.827 0)
(990 -0.00173317 0)
(990 -7.51379e-05 0)
(1076.48 394.515 0)
(989.931 0.00149081 0)
(990 3.28191e-12 0)
(990 -3.04205e-12 0)
(990.003 -0.000213582 0)
(990 6.41432e-06 0)
(850.908 183.378 0)
(990 1.56212e-07 0)
(990 -1.11861e-11 0)
(993.123 -8.96483 0)
(990 -5.50152e-14 0)
(905.474 57.9312 0)
(338.288 -286.015 0)
(1042.54 41.7987 0)
(990 1.66438e-11 0)
(990 1.51321e-11 0)
(931.364 -309.718 0)
(990 1.78922e-11 0)
(884.86 115.088 0)
(1062.49 461.854 0)
(990 -3.80872e-11 0)
(990 -3.26977e-11 0)
(1045.13 103.773 0)
(990 -7.55536e-12 0)
(663.264 -324.727 0)
(603.242 -335.265 0)
(619.3 319.557 0)
(853.579 91.9239 0)
(990 -5.66995e-11 0)
(990 -2.54289e-10 0)
(273.263 301.4 0)
(990 -3.89712e-12 0)
(990 -0.000506835 0)
(990 -2.95561e-10 0)
(990 3.21015e-12 0)
(427.621 -346.768 0)
(681.111 357.511 0)
(990 -5.72135e-11 0)
(990 1.08338e-07 0)
(931.179 -124.18 0)
(990 0.000182505 0)
(990 -6.83965e-12 0)
(990 -4.60502e-08 0)
(230.515 227.42 0)
(1052.81 104.127 0)
(989.996 0.0245626 0)
(990 -1.46788e-11 0)
(876.107 214.073 0)
(990 -4.90061e-10 0)
(990 -9.89613e-12 0)
(990 1.2651e-11 0)
(990 -3.24795e-11 0)
(990 5.0003e-12 0)
(990 -0.000185263 0)
(990 -1.61179e-12 0)
(990 -4.90456e-11 0)
(990 -2.40066e-12 0)
(579.848 335.015 0)
(670.911 361.819 0)
(990 -4.69259e-11 0)
(990 -1.06177e-11 0)
(990 -1.20326e-07 0)
(990 4.80023e-13 0)
(990.016 0.0611566 0)
(577.689 -314.009 0)
(990 1.04206e-11 0)
(993.319 -153.953 0)
(905.438 303.653 0)
(990 3.09616e-09 0)
(990 3.56757e-11 0)
(990 -2.64246e-09 0)
(990 4.23258e-09 0)
(990 3.786e-09 0)
(1016.65 55.538 0)
(842.957 -135.85 0)
(990 -3.0146e-12 0)
(867.574 134.789 0)
(990 -8.35609e-11 0)
(990 -1.48545e-06 0)
(990 -0.00019986 0)
(990 -5.29049e-11 0)
(990 7.1944e-12 0)
(990 -2.30426e-05 0)
(989.978 -0.00400749 0)
(990 3.88143e-05 0)
(990.048 -0.0970626 0)
(990 -3.42851e-06 0)
(477.73 5.96433 0)
(899.68 -186.014 0)
(990 -3.05065e-12 0)
(878.415 -180.108 0)
(898.388 181.773 0)
(990 -4.93319e-11 0)
(990 1.71714e-11 0)
(846.317 548.42 0)
(486.279 -330.094 0)
(990 -1.34681e-11 0)
(990 -8.38698e-12 0)
(249.666 -321.271 0)
(990 0.000256998 0)
(989.839 45.3938 0)
(990.148 -0.248355 0)
(990 -7.74653e-09 0)
(990 2.73753e-10 0)
(990 0.0343464 0)
(132.205 66.2199 0)
(881.781 -112.719 0)
(990 -7.07792e-07 0)
(1041.15 -26.2238 0)
(990 -1.29813e-12 0)
(831.457 -113.957 0)
(1034.23 -460.804 0)
(990 -9.73349e-10 0)
(316.786 -334.377 0)
(990 -4.93084e-11 0)
(795.075 217.072 0)
(990 -4.95841e-12 0)
(990 -1.70316e-09 0)
(990 1.79805e-10 0)
(182.596 -139.745 0)
(609.385 -329.961 0)
(754.848 241.78 0)
(160.181 232.427 0)
(988.151 -8.07809 0)
(906.57 307.811 0)
(990 4.83993e-11 0)
(822.041 202.126 0)
(989.998 -0.0011123 0)
(990 3.09859e-10 0)
(990 -3.31694e-12 0)
(990 -2.02228e-12 0)
(989.984 8.32853e-05 0)
(990 7.66418e-12 0)
(990 1.5671e-11 0)
(990 -9.75352e-12 0)
(732.408 127.031 0)
(247.306 -302.53 0)
(990 5.52283e-06 0)
(990 3.85823e-06 0)
(670.737 -376.583 0)
(990 -8.35851e-12 0)
(976.005 -231.156 0)
(830.497 -164.035 0)
(990 -2.12093e-13 0)
(990 3.39547e-09 0)
(953.083 116.436 0)
(990 -0.000252286 0)
(990.012 0.0378014 0)
(739.207 -279.404 0)
(991.041 54.986 0)
(990 9.16998e-13 0)
(829.143 -151.593 0)
(920.319 -46.5692 0)
(990 -4.22756e-06 0)
(990 -1.39224e-05 0)
(990 -1.50887e-08 0)
(664.851 -379.55 0)
(1070.12 273.467 0)
(406.147 -340.303 0)
(990 1.05857e-11 0)
(990 5.72256e-07 0)
(990 1.17199e-11 0)
(752.218 -228.931 0)
(990 6.77265e-12 0)
(990 2.47106e-10 0)
(990 9.71985e-12 0)
(990 -1.30992e-07 0)
(990 -4.88782e-06 0)
(990 5.34231e-13 0)
(990 1.54648e-11 0)
(990 4.47443e-09 0)
(990 8.16456e-13 0)
(990 2.78323e-13 0)
(990 3.42644e-09 0)
(1129.16 108.951 0)
(990 -5.76346e-11 0)
(990.092 0.0736536 0)
(990 -1.1712e-11 0)
(990 -1.42154e-10 0)
(990 -2.13672e-11 0)
(615.193 377.009 0)
(990 -7.97538e-12 0)
(990 6.20641e-05 0)
(651.805 -286.939 0)
(990 -2.57719e-11 0)
(473.666 -335.419 0)
(990 5.68582e-12 0)
(743.081 -280.415 0)
(990 -5.20865e-12 0)
(130.333 204.795 0)
(990 -3.64208e-08 0)
(990 -5.26593e-13 0)
(671.396 -317.733 0)
(990 -8.35594e-12 0)
(990 -2.54166e-09 0)
(992.835 11.5565 0)
(989.62 -0.376006 0)
(868.479 38.6449 0)
(990 -3.296e-07 0)
(989.999 0.00869073 0)
(990.005 0.000215147 0)
(990 -1.60855e-11 0)
(872.569 320.052 0)
(1050.4 385.744 0)
(990 -1.19122e-12 0)
(990 9.71714e-08 0)
(990 -2.60036e-11 0)
(990 -1.50395e-09 0)
(990 3.63598e-11 0)
(989.933 -0.0200655 0)
(990 -8.97677e-12 0)
(990 -4.91987e-10 0)
(990 4.6864e-11 0)
(990 1.58723e-11 0)
(786.654 212.045 0)
(990 1.16333e-11 0)
(990 -1.06064e-12 0)
(-57.3784 11.1045 0)
(602.535 337.737 0)
(990 1.2309e-11 0)
(990 -3.34702e-12 0)
(990 1.56593e-05 0)
(990 -2.41354e-11 0)
(989.995 0.063088 0)
(990.004 0.000581583 0)
(990 4.44413e-12 0)
(1081.16 236.52 0)
(990 -2.37582e-10 0)
(1013.52 -103.37 0)
(990 -8.25001e-12 0)
(174.805 -127.289 0)
(990.001 -0.00111475 0)
(990 -1.09769e-11 0)
(990 1.85331e-11 0)
(990 -0.000401274 0)
(990 1.85871e-11 0)
(985.763 3.02434 0)
(888.879 170.689 0)
(990 -3.00929e-11 0)
(905.242 -195.421 0)
(990 4.92998e-07 0)
(544.141 347.252 0)
(990 -2.15523e-05 0)
(990 4.87202e-11 0)
(990 -1.62624e-12 0)
(990 -2.05285e-11 0)
(989.988 0.0039857 0)
(1071.42 259.888 0)
(990 -1.05961e-12 0)
(990 -4.82294e-11 0)
(925.316 145.653 0)
(810.948 546.425 0)
(990 -2.12282e-09 0)
(990 -3.59206e-07 0)
(964.9 39.4186 0)
(1011.27 -118.66 0)
(991.715 -14.6746 0)
(970.392 -180.207 0)
(990 7.16207e-12 0)
(990 -9.74787e-08 0)
(990 -1.22636e-08 0)
(990 2.97213e-08 0)
(990 -3.95433e-11 0)
(304.645 -308.358 0)
(990 3.11752e-08 0)
(990 9.98834e-07 0)
(501.776 -333.074 0)
(990 -6.4552e-12 0)
(978.138 -229.857 0)
(990 9.7324e-06 0)
(994.571 2.15713 0)
(990.004 0.00108496 0)
(964.463 -195.132 0)
(990 -1.28516e-08 0)
(1008.42 -22.9923 0)
(473.549 340.131 0)
(990 9.95401e-07 0)
(202.014 -183.014 0)
(982.26 105.5 0)
(990 -4.49498e-12 0)
(990 -5.18814e-05 0)
(990 -8.38073e-12 0)
(420.524 -344.784 0)
(755.561 -242.076 0)
(990.004 0.000879931 0)
(990 -4.47667e-12 0)
(1019.44 110.327 0)
(990 -3.43529e-08 0)
(990 -9.51635e-07 0)
(990 6.86715e-09 0)
(990 3.33531e-07 0)
(207.373 -217.549 0)
(990 9.41478e-11 0)
(990 -1.33399e-11 0)
(990 -2.24425e-12 0)
(990 -1.29661e-11 0)
(759.074 -311.783 0)
(990 -1.91231e-12 0)
(988.496 -29.3495 0)
(1044.1 18.1448 0)
(990 2.47633e-10 0)
(990 -1.30934e-11 0)
(887.184 -254.166 0)
(990 -4.77534e-12 0)
(990 1.20877e-08 0)
(989.999 0.000533835 0)
(990 1.84606e-10 0)
(990 1.25956e-06 0)
(826.052 188.609 0)
(990 -1.64329e-09 0)
(315.609 325.369 0)
(990 -1.67112e-11 0)
(990.027 0.0859878 0)
(891.139 -135.626 0)
(990 5.76773e-12 0)
(990 -4.32986e-07 0)
(990 1.08468e-11 0)
(990 9.25402e-12 0)
(1064.41 138.812 0)
(637.736 -316.349 0)
(990 2.35453e-13 0)
(990 -8.28054e-12 0)
(990 1.75342e-05 0)
(990 -7.39025e-09 0)
(990 -3.76438e-11 0)
(990 2.27364e-12 0)
(990 -3.22188e-07 0)
(990.054 -0.0955707 0)
(180.475 -109.775 0)
(990 -4.22908e-11 0)
(989.993 -0.20895 0)
(992.395 -5.6495 0)
(678.063 -280.545 0)
(990 -3.57034e-10 0)
(990 1.40105e-12 0)
(913.09 325.514 0)
(990 -4.33341e-07 0)
(891.987 57.0155 0)
(990 2.35262e-05 0)
(990 1.71729e-09 0)
(1065.09 269.339 0)
(990.868 3.95934 0)
(165.846 -117.577 0)
(846.961 -158.708 0)
(990.706 -2.13663 0)
(990 -5.45771e-11 0)
(1064.52 -148.957 0)
(990 -6.99772e-12 0)
(529.819 -354.651 0)
(990 -2.87578e-11 0)
(990 -1.328e-10 0)
(990 5.74642e-12 0)
(906.634 152.656 0)
(990 -9.31021e-10 0)
(990 -2.21412e-05 0)
(853.425 239.732 0)
(990 -5.30402e-11 0)
(990 4.47517e-06 0)
(1042.16 410.253 0)
(1009.48 -174.649 0)
(990 4.14988e-10 0)
(690.665 -273.48 0)
(990 -3.02154e-05 0)
(990 -2.59821e-11 0)
(651.804 -394.771 0)
(840.7 -144.223 0)
(990 -8.65823e-13 0)
(930.269 215.626 0)
(990 -3.51151e-12 0)
(990 2.25078e-12 0)
(882.565 63.7272 0)
(895.462 177.733 0)
(990 -6.48578e-12 0)
(1044.06 17.5694 0)
(990 -6.51011e-12 0)
(990 -2.7437e-10 0)
(492.052 -335.853 0)
(990 -1.52104e-10 0)
(990 2.9826e-10 0)
(990 -3.79754e-11 0)
(990 3.71461e-07 0)
(990 -2.85762e-12 0)
(990 1.2594e-11 0)
(-6.26135 -27.1575 0)
(338.642 325.043 0)
(990 -3.97998e-06 0)
(346.232 -292.273 0)
(990 -4.53249e-11 0)
(1023.6 95.2019 0)
(990 3.52315e-08 0)
(990 1.03628e-06 0)
(990 -3.66237e-11 0)
(990 -4.6493e-11 0)
(860.377 -178.647 0)
(939.599 260.725 0)
(1013.04 -178.142 0)
(990 1.19539e-11 0)
(714.033 -394.468 0)
(1061.32 226.342 0)
(987.823 25.3029 0)
(897.288 161.229 0)
(812.051 169.495 0)
(990.012 -0.0153553 0)
(1081.81 -371.093 0)
(990 -4.14563e-09 0)
(990 5.73823e-09 0)
(990 3.13827e-08 0)
(990 1.92456e-11 0)
(990 1.02382e-09 0)
(721.57 -50.0141 0)
(990 -4.72535e-11 0)
(858.978 -237.296 0)
(990 3.63273e-05 0)
(990.025 -0.0450665 0)
(469.153 326.642 0)
(1009.99 -173.5 0)
(990 1.13631e-10 0)
(990 -7.07494e-12 0)
(990 1.20484e-11 0)
(993.685 -171.369 0)
(990 -8.67686e-12 0)
(171.182 34.1884 0)
(725.244 534.386 0)
(443.22 -346.425 0)
(968.02 503.52 0)
(990 -7.37674e-12 0)
(566.957 349.942 0)
(990 -5.6991e-07 0)
(873.172 155.133 0)
(693.409 -397.865 0)
(736.062 124.934 0)
(990 -1.86413e-09 0)
(990 3.57204e-08 0)
(880.516 73.3353 0)
(578.77 352.391 0)
(302.504 320.135 0)
(612.227 377.4 0)
(990 1.00422e-11 0)
(990 6.18537e-12 0)
(990 5.30142e-12 0)
(948.53 205.295 0)
(473.592 348.612 0)
(142.633 -229.765 0)
(990 7.65065e-12 0)
(990 -6.45291e-08 0)
(923.449 -268.776 0)
(990.008 -0.0162116 0)
(842.315 -140.78 0)
(990 8.89674e-11 0)
(990 -4.5834e-12 0)
(990 2.55598e-08 0)
(874.876 169.931 0)
(990 1.20019e-11 0)
(990 3.41238e-05 0)
(990 -8.3302e-12 0)
(990 -5.27575e-11 0)
(572.047 -322.502 0)
(990 -1.35785e-09 0)
(990 -2.91661e-08 0)
(990 -4.64768e-08 0)
(990 -6.72585e-13 0)
(990 -4.14834e-11 0)
(990 2.16353e-11 0)
(990 1.92781e-09 0)
(610.561 335.394 0)
(990 2.49602e-13 0)
(990 0.000109586 0)
(1064.38 258.715 0)
(710.293 273.456 0)
(477.885 324.573 0)
(990 -8.19542e-10 0)
(983.273 -1.38145 0)
(990 -8.20558e-13 0)
(-16.4998 -34.9127 0)
(990 1.35858e-11 0)
(990 -1.90959e-12 0)
(990 -1.46165e-09 0)
(990 1.93501e-10 0)
(990 4.03741e-12 0)
(990.555 0.0919481 0)
(990 9.82189e-12 0)
(1056.81 -213.848 0)
(990 -4.50221e-08 0)
(990 -2.68613e-09 0)
(990 -3.18786e-11 0)
(1052.13 -492.131 0)
(990.24 -2.70212 0)
(1059.49 -200.416 0)
(990 -2.19183e-11 0)
(878.136 125.762 0)
(1053.82 -217.054 0)
(990 6.01183e-06 0)
(990 8.62214e-12 0)
(990 0.000605965 0)
(882.256 37.5253 0)
(1059.12 -500.566 0)
(990 -1.84753e-11 0)
(203.19 194.889 0)
(1032.5 -99.435 0)
(990 1.03806e-11 0)
(990 -3.07433e-12 0)
(990 1.65838e-09 0)
(990 2.18053e-11 0)
(990 2.06123e-11 0)
(974.634 126.115 0)
(1048.64 -449.808 0)
(990 -3.45104e-07 0)
(990 -1.59873e-07 0)
(426.664 258.363 0)
(1035.72 -103.981 0)
(891.41 -68.3818 0)
(990 1.22182e-11 0)
(329.398 318.089 0)
(990 4.41587e-07 0)
(990 9.26977e-10 0)
(870.829 564.755 0)
(990 3.06772e-10 0)
(898.351 -202.796 0)
(990 9.36637e-12 0)
(990 -2.27754e-11 0)
(990 -4.24975e-12 0)
(990 -1.18084e-08 0)
(910.215 135.416 0)
(990 -3.58587e-10 0)
(990 -3.54965e-11 0)
(990 -1.1607e-12 0)
(990 5.29946e-09 0)
(990 -5.01914e-09 0)
(990 -2.29721e-07 0)
(989.994 -0.00271318 0)
(990 2.14869e-05 0)
(989.999 0.00675396 0)
(969.424 77.7358 0)
(317.012 338.398 0)
(990 1.65327e-08 0)
(945.112 226.073 0)
(174.429 16.9516 0)
(990 0.000149924 0)
(926.467 -133.416 0)
(990 8.86707e-09 0)
(1037.1 80.3807 0)
(990 2.29646e-11 0)
(990 1.52704e-10 0)
(990 -4.57203e-12 0)
(974.853 -174.471 0)
(170.334 215.336 0)
(889.061 198.661 0)
(982.42 -79.7296 0)
(1055.47 -133.555 0)
(430.636 24.1479 0)
(990 1.60816e-11 0)
(990.257 9.16342 0)
(993.883 -6.18648 0)
(990 1.92268e-11 0)
(990 -1.28228e-11 0)
(989.994 0.0223319 0)
(996.584 93.9547 0)
(968.995 -78.7607 0)
(989.99 -0.00580495 0)
(881.827 -264.984 0)
(209.013 -224.173 0)
(153.989 -117.962 0)
(990 -1.59378e-11 0)
(257.375 243.398 0)
(463.417 -338.135 0)
(990.001 -0.00219729 0)
(989.716 -3.22724 0)
(990 -0.000156465 0)
(990 -1.74293e-12 0)
(990 3.2847e-07 0)
(1060.64 -183.696 0)
(990 -8.02806e-12 0)
(990 -1.01066e-11 0)
(989.991 0.0438387 0)
(875.34 -184.235 0)
(990.003 -0.00611844 0)
(1020.59 -179.872 0)
(990 -3.71477e-11 0)
(974.411 3.99641 0)
(990 8.03951e-08 0)
(990 -9.34922e-12 0)
(990 -3.33474e-09 0)
(1017.65 -482.662 0)
(990 -1.81341e-08 0)
(990 -7.23422e-11 0)
(990 2.82845e-05 0)
(990 -8.90478e-12 0)
(990 8.27905e-07 0)
(991.404 -2.67248 0)
(825.76 329.199 0)
(990 1.71417e-08 0)
(1053.49 88.9032 0)
(990 6.6765e-12 0)
(990 2.16789e-12 0)
(968.773 -96.7649 0)
(809.052 -53.4807 0)
(1050.95 -419.609 0)
(894.717 179.477 0)
(990 1.26256e-11 0)
(799.071 312.135 0)
(990 4.57226e-12 0)
(990 -6.14276e-06 0)
(790.685 -11.7073 0)
(990 7.78971e-10 0)
(842.248 -345.069 0)
(990 -0.0016459 0)
(1066.39 -157.6 0)
(990 -2.83205e-10 0)
(990 9.63678e-09 0)
(990 -3.46862e-05 0)
(989.998 0.00556967 0)
(746.44 217.542 0)
(990 -4.75932e-10 0)
(990 -5.8269e-09 0)
(923.945 161.487 0)
(521.44 348.299 0)
(1059.79 52.4859 0)
(990.009 3.74872 0)
(275.086 240.497 0)
(990 -2.84337e-11 0)
(988.831 3.84608 0)
(990 1.12474e-10 0)
(990 -5.41711e-09 0)
(990 -5.2496e-08 0)
(990 3.23068e-08 0)
(538.408 40.7972 0)
(990 6.62782e-12 0)
(990 -6.88517e-12 0)
(468.379 -375.466 0)
(990 6.18728e-05 0)
(990 -2.45723e-10 0)
(990 -5.05897e-08 0)
(990 5.62289e-12 0)
(990 -3.9279e-12 0)
(990 -1.08574e-12 0)
(990 -5.935e-11 0)
(990 4.63461e-08 0)
(990 -1.91798e-11 0)
(990 -1.21342e-11 0)
(990 1.72809e-11 0)
(990 1.59606e-11 0)
(990 -2.96669e-06 0)
(989.125 -0.254557 0)
(446.203 103.765 0)
(990 -1.98638e-10 0)
(990 -3.03609e-12 0)
(989.997 0.000936357 0)
(990 -1.55985e-10 0)
(918.574 304.973 0)
(990 1.31881e-12 0)
(344.229 291.484 0)
(1086.27 -310.71 0)
(933.559 -255.853 0)
(990 2.85707e-10 0)
(989.98 0.0131503 0)
(1058.5 -213.002 0)
(990 -1.54368e-07 0)
(989.999 -0.00147454 0)
(989.873 2.28053 0)
(990 -3.83584e-11 0)
(588.179 335.234 0)
(990 2.17543e-11 0)
(990 -1.08947e-05 0)
(990 2.33723e-10 0)
(336.529 -308.128 0)
(947.233 257.186 0)
(958.739 107.066 0)
(990 -1.24571e-08 0)
(827.318 105.77 0)
(990 -7.70519e-08 0)
(990 -6.97521e-12 0)
(990 -3.53178e-11 0)
(990 1.82666e-11 0)
(990 1.13113e-11 0)
(455.683 365.585 0)
(1058.55 -186.033 0)
(989.876 0.0465991 0)
(990 1.33408e-10 0)
(697.054 371.668 0)
(990 1.20576e-11 0)
(990 1.22536e-11 0)
(922.267 278.089 0)
(290.517 307.31 0)
(990 5.05927e-08 0)
(981.906 120.87 0)
(990 -3.77103e-07 0)
(407.985 -345.322 0)
(943.041 243.157 0)
(990.001 -0.000582846 0)
(990 9.73692e-12 0)
(990 2.43742e-12 0)
(1082.87 -383.453 0)
(1079.63 212.495 0)
(990 -0.000970212 0)
(990 -7.12788e-12 0)
(990.381 -1.01977 0)
(962.55 106.996 0)
(380.002 -269.993 0)
(990 -1.55196e-11 0)
(990 7.3053e-12 0)
(402.473 -344.828 0)
(702.498 275.388 0)
(990 3.24751e-11 0)
(990 -1.15409e-11 0)
(944.407 113.73 0)
(958.476 -218.22 0)
(939.456 251.602 0)
(985.321 -179.597 0)
(857.83 170.094 0)
(990 -2.14064e-11 0)
(596.515 -301.134 0)
(990 1.37503e-10 0)
(990 -7.46353e-06 0)
(990 -2.40573e-09 0)
(990 -3.67462e-11 0)
(990 1.72705e-11 0)
(987.53 0.163713 0)
(990 -1.75462e-05 0)
(990 -5.53119e-08 0)
(990 0.00396717 0)
(990 9.87385e-12 0)
(990 4.03114e-10 0)
(989.998 0.0189446 0)
(518.872 355.822 0)
(990 4.89398e-12 0)
(990 2.56088e-11 0)
(990.079 0.143174 0)
(744.351 344.733 0)
(982.715 -66.0518 0)
(826.21 192.986 0)
(1062.86 278.178 0)
(990 2.11819e-12 0)
(643.507 373.497 0)
(976.921 -142 0)
(477.141 -339.487 0)
(990 -6.68619e-11 0)
(1062.24 483.767 0)
(990 6.38146e-08 0)
(277.954 -328.313 0)
(990 2.00525e-05 0)
(531.782 350.07 0)
(1059.4 502.108 0)
(96.1254 -32.9602 0)
(990 -5.47533e-07 0)
(699.824 -249.635 0)
(990 -4.58584e-10 0)
(990 -3.28325e-11 0)
(990 3.52678e-06 0)
(980.736 -160.88 0)
(990 5.77346e-10 0)
(990 -1.2652e-09 0)
(990 7.67122e-12 0)
(989.997 -0.000301184 0)
(127.836 -91.3532 0)
(990 -9.2088e-12 0)
(1003.3 -38.1041 0)
(544.262 -323.476 0)
(990 -3.07822e-11 0)
(990 4.11675e-12 0)
(990 1.01853e-06 0)
(990 -2.65302e-12 0)
(990.129 -0.371133 0)
(1003.09 220.081 0)
(990 -4.17673e-11 0)
(990 3.07014e-11 0)
(990 9.70503e-12 0)
(990 -1.13099e-11 0)
(981.273 -1.0523 0)
(1065.34 -462.972 0)
(990 -5.65074e-12 0)
(990.054 0.0943243 0)
(990 2.05374e-09 0)
(1077.76 1.55456 0)
(990 -2.39375e-12 0)
(990.003 -0.0045838 0)
(308.253 -295.976 0)
(990 -1.45359e-12 0)
(990 1.42849e-11 0)
(990 -5.4059e-09 0)
(990 6.51811e-09 0)
(990 4.28426e-13 0)
(953.583 250.247 0)
(-110.457 7.4249 0)
(1006.85 26.3254 0)
(990.002 0.000246206 0)
(395.856 -339.667 0)
(990 0.00266775 0)
(907.442 -241.857 0)
(1084.41 268.337 0)
(990 3.42045e-05 0)
(888.325 -130.025 0)
(885.998 -245.566 0)
(990 1.05121e-11 0)
(990 1.29554e-10 0)
(808.405 -255.02 0)
(989.619 0.334769 0)
(990 -1.04625e-06 0)
(990 5.22963e-12 0)
(664.076 -388.704 0)
(990 5.61019e-11 0)
(989.999 0.000167037 0)
(990 5.83653e-12 0)
(990 -1.10682e-11 0)
(990 2.60972e-11 0)
(900.173 -238.919 0)
(990 -1.94029e-11 0)
(990 -5.35516e-11 0)
(990 1.84902e-11 0)
(989.996 -0.00573284 0)
(803.876 -47.6341 0)
(885.937 -119.301 0)
(218.851 -283.795 0)
(990 2.47199e-11 0)
(990 -7.72395e-08 0)
(990 2.68025e-11 0)
(990 -1.91343e-10 0)
(990 -2.17452e-12 0)
(993.721 -15.9716 0)
(856.459 137.191 0)
(990 -1.1943e-12 0)
(990 2.46129e-12 0)
(226.622 -296.108 0)
(1080.63 383.747 0)
(990 5.13601e-10 0)
(990 1.5636e-11 0)
(1078.71 -230.249 0)
(990.059 0.169388 0)
(561.367 255.401 0)
(972.132 71.6428 0)
(692.491 -184.074 0)
(990 2.92823e-12 0)
(990 2.78899e-12 0)
(1055.35 -143.682 0)
(990 -1.3716e-05 0)
(990 -9.45901e-12 0)
(990 1.3471e-10 0)
(990 9.61159e-12 0)
(307.923 -335.572 0)
(1056.78 -188.404 0)
(990 2.41559e-09 0)
(990 0.000453592 0)
(1050.6 132.101 0)
(343.792 -341.818 0)
(1047.7 -6.25863 0)
(990 7.33716e-06 0)
(736.056 -231.415 0)
(929.938 -363.499 0)
(990.001 0.00075413 0)
(841.649 -217.869 0)
(990 -0.00042685 0)
(990 -2.99036e-06 0)
(990 -4.38992e-12 0)
(990 4.21299e-09 0)
(990 -3.68467e-11 0)
(990 -1.38735e-11 0)
(990 -9.61168e-11 0)
(990 -2.28286e-12 0)
(777.307 -247.155 0)
(990 7.84409e-12 0)
(990 1.36704e-11 0)
(990 0.00704136 0)
(990 -1.93836e-07 0)
(692.384 368.141 0)
(786.373 -279.717 0)
(990 1.77286e-10 0)
(990 -3.97093e-11 0)
(990 -1.32884e-11 0)
(990 4.612e-13 0)
(990 2.85033e-06 0)
(1074.51 -226.968 0)
(988.703 -2.6139 0)
(1062.79 450.729 0)
(990 -5.23426e-09 0)
(990 -1.03563e-11 0)
(557.373 263.662 0)
(990 4.93954e-10 0)
(989.999 0.0389952 0)
(990 1.63515e-11 0)
(990 2.90312e-05 0)
(990 -7.47088e-11 0)
(990 -8.05618e-12 0)
(990 3.40569e-11 0)
(1044.95 -527.05 0)
(990 8.27147e-10 0)
(990 -5.83069e-12 0)
(965.563 299.407 0)
(990 -4.12622e-06 0)
(1006.19 -172.574 0)
(274.878 278.602 0)
(990 8.73932e-06 0)
(990 -6.5159e-11 0)
(990 4.70783e-10 0)
(990 1.15479e-12 0)
(990 3.21283e-11 0)
(990 -5.48954e-11 0)
(990 -7.22562e-08 0)
(990 -3.33325e-10 0)
(990 -3.78166e-11 0)
(990 -4.81848e-12 0)
(746.724 -321.384 0)
(990 -0.000204659 0)
(811.149 29.1636 0)
(990 1.30921e-08 0)
(633.422 344.166 0)
(990 -1.29179e-12 0)
(990 -1.19806e-11 0)
(639.927 -308.662 0)
(990 3.24507e-06 0)
(990 -6.05597e-11 0)
(989.916 0.00744937 0)
(985.785 -63.3399 0)
(992.297 122.153 0)
(990 -7.27344e-05 0)
(990 -2.1504e-11 0)
(880.915 253.423 0)
(512.916 336.695 0)
(990 1.82743e-10 0)
(990 2.14677e-12 0)
(918.857 236.508 0)
(990 8.68617e-11 0)
(990 -5.1031e-06 0)
(990 -9.90839e-10 0)
(768.445 -261.366 0)
(990 6.33756e-12 0)
(400.441 -26.8588 0)
(990 -2.43637e-11 0)
(990 -1.21405e-11 0)
(990 3.03655e-07 0)
(990 -5.01842e-12 0)
(615.381 -235.268 0)
(990 3.07538e-11 0)
(989.145 35.4543 0)
(990 -4.21174e-09 0)
(990 4.42789e-10 0)
(989.998 0.0316152 0)
(990 -7.60001e-08 0)
(990 -1.2444e-08 0)
(947.335 -196.993 0)
(993.359 -15.6949 0)
(990 -2.5111e-08 0)
(990 -8.11268e-07 0)
(990 3.07189e-12 0)
(945.181 142.385 0)
(1043.04 387.333 0)