/*--------------------------------*- C++ -*----------------------------------*\
| =========                 |                                                 |
| \\      /  F ield         | OpenFOAM: The Open Source CFD Toolbox           |
|  \\    /   O peration     | Version:  2406                                  |
|   \\  /    A nd           | Website:  www.openfoam.com                      |
|    \\/     M anipulation  |                                                 |
\*---------------------------------------------------------------------------*/
FoamFile
{
    version     2.0;
    format      ascii;
    arch        "LSB;label=32;scalar=64";
    class       volScalarField;
    location    "0.0008000341512";
    object      p;
}
// * * * * * * * * * * * * * * * * * * * * * * * * * * * * * * * * * * * * * //

dimensions      [1 -1 -2 0 0 0 0];

internalField   nonuniform List<scalar> 
17141
(
79.78
79.78
79.78
65.6062
79.78
156.698
261.111
156.562
78.0188
80.2425
79.78
79.78
580.529
79.78
41.8921
79.5263
79.78
543.078
694.834
59.2436
130.041
79.78
150.83
20.063
79.78
79.78
79.8638
79.78
200.351
60.6636
72.2177
79.78
79.7828
167.091
237.429
59.5265
79.78
94.4084
79.78
78.3637
33.3924
90.5822
80.0171
960.67
182.57
79.877
331.628
55.1807
79.7798
79.7832
79.7834
79.78
140.295
822.705
79.7793
221.593
75.6051
79.3784
321.435
677.747
11.7913
79.7867
99.1283
79.78
691.439
79.3616
79.8015
79.5832
330.214
79.7805
14.4467
763.669
77.7759
79.7799
79.78
79.78
79.78
36.0096
746.204
79.78
79.78
897.316
213.624
79.78
79.7026
566.897
79.78
54.6421
79.7807
79.78
79.78
146.079
23.2953
28.9368
78.6796
79.7801
80.0344
79.766
150.435
79.7929
79.78
86.4342
79.78
79.78
79.7801
943.756
79.7797
379.285
79.78
79.78
146.895
227.761
642.594
79.3295
79.8062
28.9136
79.8541
79.8129
80.6995
609.666
63.0372
79.78
79.8836
79.789
248.708
175.566
498.173
31.2372
79.78
79.7842
74.4864
79.78
32.4697
79.78
63.1202
11.7261
169.815
748.297
79.5893
183.693
140.118
79.7809
79.78
843.995
639.073
79.78
808.401
79.791
193.357
79.78
27.0794
243.181
763.652
18.3847
79.8057
79.78
79.78
30.4878
79.78
79.78
79.78
93.9173
78.6835
126.769
517.169
79.78
239.188
160.971
79.78
79.78
79.7799
79.78
79.0838
79.78
764.866
15.4788
43.8764
542.187
79.7827
20.4054
79.7798
79.7825
77.674
79.78
537.697
121.991
79.78
79.7787
85.0305
206.424
79.7795
79.8975
79.7903
79.7803
614.08
806.684
502.078
100.631
640.533
62.5761
13.7331
57.0621
416.816
156.953
62.3614
106.217
128.408
79.7798
815.384
79.7793
14.5344
79.904
79.8682
848.608
196.198
391.247
15.2227
79.7664
79.7804
30.8443
79.78
79.78
79.78
79.0394
206.795
79.4224
70.8112
79.78
79.7821
79.7827
409.521
77.197
269.717
21.9192
79.7799
35.4276
79.3245
60.1882
79.7817
71.6766
44.7388
678.231
768.228
510.769
79.786
79.74
827.368
783.282
61.7893
79.78
79.7855
466.025
145.449
233.078
76.4696
684.627
265.651
79.78
78.9663
79.78
79.78
788.018
79.7801
88.2057
711.563
79.7347
79.2269
97.1029
743.235
705.158
79.78
79.7831
80.0155
79.78
79.78
79.8983
16.8479
115.397
29.1946
562.47
310.846
356.55
79.7799
106.291
38.896
67.3997
79.7806
79.78
867.588
79.8154
12.9079
79.78
130.199
16.0226
84.2342
328.7
14.0723
79.5934
23.4497
72.1459
79.78
78.5005
455.965
79.7831
79.78
468.991
79.8221
61.3657
79.7797
79.78
156.707
79.5907
80.6798
13.8006
84.0934
288.989
79.7786
81.4192
540.165
463.303
13.1348
379.248
849.367
30.9532
75.4497
579.469
205.714
70.968
12.5621
79.78
687.899
79.78
225.939
565.714
79.78
79.779
79.78
30.1442
862.462
13.327
256.986
78.571
729.138
79.78
79.78
81.6066
188.709
79.78
822.947
79.78
79.78
12.4718
242.464
547.803
917.024
78.6676
79.7647
79.78
79.78
309.161
79.78
79.78
79.78
79.7787
49.5996
79.78
79.7804
80.6888
176.547
284.206
79.78
79.78
687.038
227.476
358.524
26.5161
279.165
520.04
22.6657
161.964
79.78
432.802
79.78
195.413
79.7774
87.7397
79.7777
79.6943
79.78
278.806
97.5198
444.284
97.964
79.7918
79.78
17.892
81.0579
627.682
53.1082
79.78
79.78
201.588
33.7214
410.431
38.8163
79.78
12.151
79.78
79.78
79.78
79.9649
79.2647
362.35
79.7644
40.5207
78.1466
48.4026
286.158
79.7786
520.296
667.314
79.78
79.78
115.282
79.78
70.0567
79.78
79.78
608.042
79.7476
80.076
80.0072
79.7802
79.78
72.7686
79.78
79.7805
59.6428
13.4005
79.7612
79.78
79.78
79.7799
79.78
79.785
177.527
79.7798
80.1139
78.7825
97.7566
79.7826
79.8084
276.686
366.43
144.553
350.417
79.78
79.7692
79.7799
17.3929
74.1413
60.7904
79.7789
87.6809
13.222
835.715
79.78
79.78
294.806
79.78
659.825
217.824
89.1965
14.7352
755.167
79.78
79.78
715.975
80.3819
56.7031
196.577
79.7799
597.543
79.78
53.8976
734.24
58.0473
79.78
79.78
25.5662
79.78
18.3754
12.4852
79.78
256.386
52.4537
79.78
342.783
381.543
339.292
60.3391
79.8238
79.7804
712.286
79.78
210.531
79.7795
79.78
495.85
385.473
79.5904
77.4839
36.1651
275.455
79.78
79.7622
806.64
40.4748
187.169
79.78
32.8328
79.7792
79.78
79.7805
79.7792
79.78
86.8806
79.78
79.781
79.7799
406.04
393.519
79.78
79.7793
79.7749
79.78
61.9847
356.434
79.78
24.8782
218.843
79.7819
79.78
79.9629
168.874
79.7799
416.44
59.5935
79.78
143.447
79.78
64.2981
557.293
79.78
79.78
419.803
861.779
161.215
79.5017
75.98
54.2917
13.8653
79.78
158.432
156.839
79.78
79.78
14.2343
439.306
79.78
79.7796
644.319
347.826
33.1026
76.586
79.2697
79.7806
415.109
15.5131
26.3475
74.5062
782.189
79.7357
60.4266
14.2745
79.7791
570.272
79.78
206.25
79.78
282.941
79.8042
892.458
374.289
525.787
832.74
78.3899
211.888
79.7799
186.16
375.114
79.78
79.78
79.78
820.037
79.78
79.78
79.78
148.141
728.92
84.3943
78.2191
446.099
79.78
146.024
60.1464
79.78
79.7681
21.7467
388.243
60.1085
262.224
31.4647
79.78
153.006
46.0523
446.406
78.5224
79.4124
408.645
22.5738
597.153
79.78
224.318
79.78
210.891
79.78
79.78
79.78
79.0948
75.5328
79.78
79.78
79.7661
79.7801
79.78
79.7811
762.813
79.7792
863.467
79.78
79.78
79.78
467.258
79.7275
190.523
24.3824
79.78
439.199
79.78
259.286
79.78
860.036
77.2752
79.78
331.196
79.7801
166.998
366.528
647.935
100.123
78.8665
198.731
835.638
79.7708
27.314
19.1243
79.7889
74.9039
174.986
79.7799
79.78
862.094
79.7801
198.697
79.754
79.78
203.133
79.7783
79.78
16.4806
377.349
79.78
98.1536
232.716
79.78
197.798
145.516
79.78
28.079
79.7811
30.7412
79.78
898.739
83.7876
79.78
79.78
86.8668
79.78
771.754
29.0262
79.78
14.3982
79.7842
466.176
151.701
79.8574
79.78
79.78
655.383
24.2457
79.78
79.7808
17.368
12.0087
79.7851
79.6754
95.1255
29.4541
39.1847
133.046
79.7844
80.148
185.682
79.8742
79.7798
687.248
79.7152
220.064
482.778
79.7898
143.766
75.2595
601.885
844.457
140.575
79.7736
416.307
467.749
68.548
13.1136
106.957
79.78
456.964
79.78
570.889
220.271
645.045
79.78
94.4179
79.8047
121.502
79.7794
80.5447
834.811
79.801
79.78
79.78
79.78
275.669
79.78
35.2807
65.4668
79.7203
79.7801
33.4026
79.78
78.3979
448.669
79.7803
150.81
183.543
79.7774
666.855
79.78
405.479
14.3519
79.7801
80.5044
79.78
79.7839
37.8472
342.492
175.164
79.78
141.379
79.7827
79.78
79.78
80.1223
485.837
15.6658
79.78
485.314
91.7018
272.16
79.7802
79.78
39.5574
79.4447
56.416
140.106
79.781
22.7749
367.022
916.438
58.8131
93.7424
79.78
42.5073
79.78
500.198
86.9614
79.7951
79.78
141.952
76.4244
233.811
388.856
79.78
80.0586
12.3411
110.868
79.7768
265.722
143.144
79.778
434.412
150
79.78
15.2725
79.78
79.78
111.249
16.9318
79.78
64.2963
79.78
195.129
478.497
79.78
189.876
79.78
148.933
79.7833
79.78
16.0688
688.277
97.6195
735.326
79.8048
90.754
80.6676
338.29
79.78
125.843
57.9379
176.764
112.64
79.7801
377.563
34.6659
197.917
148.982
170.012
341.631
17.8215
79.7878
79.66
75.8778
79.78
79.924
59.5429
79.78
402.773
194.127
79.1632
389.375
113.741
197.719
79.78
79.78
23.8228
79.7801
925.05
14.3625
480.363
12.7854
79.78
440.723
81.999
150.381
386.517
148.231
79.7834
79.7069
47.9983
437.1
673.548
486.388
79.78
79.78
79.78
151.691
453.942
853.059
79.78
79.7477
186.995
82.0987
59.8984
79.8851
79.78
75.3116
45.3881
79.7796
237.496
79.78
79.7787
370.703
79.7776
79.7776
77.4893
79.78
79.78
79.78
79.7765
366.836
79.78
123.998
30.0091
272.027
417.708
79.6515
877.754
79.78
15.8083
79.78
79.78
79.7814
169.988
79.7795
880.319
79.78
27.1776
114.501
79.7803
79.78
14.1788
383.105
38.7593
79.78
37.75
26.7033
80.4341
79.78
185.13
52.4039
17.2233
79.78
11.5147
35.8136
79.78
79.78
141.565
79.78
79.78
114.061
14.8378
78.1427
83.8511
758.749
35.3439
47.245
79.78
687.132
126.597
79.7798
11.4997
79.78
13.7122
79.78
79.78
79.78
79.7446
53.0589
79.7808
79.7749
79.78
80.011
79.852
75.9435
596.103
378.362
377.858
103.46
642.853
115.427
160.747
915.628
212.197
18.8093
190.223
58.0665
79.78
79.7799
79.78
129.392
844.18
166.212
48.473
47.2036
43.7084
79.78
43.0017
71.4412
79.78
79.78
548.487
99.3476
26.7284
866.126
206.395
826.382
924.929
79.7721
761.66
511.121
651.929
390.333
446.602
79.78
74.7746
39.3215
79.78
79.781
382.313
40.76
104.502
45.1218
79.78
843.716
79.7687
79.78
79.7768
13.1912
79.7814
218.859
361.617
79.78
157.612
73.8924
303.207
79.8622
43.3352
79.78
79.78
37.0581
58.3177
15.7372
154.911
79.78
379.04
79.78
72.545
61.9208
103.713
23.1485
108.156
41.4218
79.7769
159.667
107.037
166.491
32.768
106.416
79.2994
311.755
516.678
652.411
46.804
759.716
79.7801
627.09
79.5202
286.398
79.3239
78.2309
40.8597
79.78
79.78
683.176
118.774
79.7774
79.7671
79.78
79.78
79.78
79.6945
79.8083
79.78
79.78
79.78
79.78
79.0902
743.606
27.9104
79.78
79.78
360.603
122.64
20.4023
79.78
718.618
22.4248
179.497
79.7801
648.956
35.4329
70.6064
249.02
48.4711
79.78
393.127
79.78
292.142
79.7794
728.64
171.217
113.878
79.7796
60.9098
78.9543
79.78
79.78
79.78
79.78
635.842
30.4754
717.689
79.7807
378.962
79.78
79.78
15.0959
693.631
78.7725
110.212
79.9824
578.363
169.075
867.581
79.78
79.78
16.9936
30.9211
250.454
79.78
93.2423
23.3411
15.1123
79.4812
79.78
540.601
280.621
79.78
79.78
21.1328
151.131
175.479
22.2639
161.624
79.78
333.192
79.7799
80.5293
79.7769
255.734
79.78
647.117
132.778
111.538
184.611
79.78
79.8279
184.055
530.806
79.78
79.78
711.578
329.152
97.2449
183.495
21.2857
79.78
425.882
678.236
493.062
79.5868
12.7913
79.733
638.952
72.4302
499.088
11.6202
958.43
78.6481
237.692
136.928
342.058
87.4661
122.882
79.8565
79.6553
79.78
447.387
939.013
79.78
71.9222
765.211
78.8321
79.78
83.0823
79.78
95.8503
41.3839
223.38
79.7802
79.78
79.78
664.57
12.5269
79.78
58.6025
79.1167
894.131
79.78
340.139
691.954
79.7801
79.7746
79.7835
79.7768
79.7819
165.681
17.2828
426.185
819.408
556.717
205.474
13.2494
25.7749
144.892
14.6589
189.998
79.78
79.8032
219.806
703.477
77.1851
79.78
422.125
79.78
71.0148
79.78
79.78
79.7801
14.7141
79.78
315.364
79.78
441.158
46.4301
13.6574
758.528
79.78
79.2846
79.78
79.7799
79.78
76.2116
59.5603
79.7801
79.78
746.009
17.3797
79.8253
79.7799
28.5745
469.534
19.7275
310.78
202.499
79.78
79.78
46.8284
67.901
79.78
368.506
79.78
604.597
29.9115
79.7811
359.025
47.8508
562.101
59.0428
213.222
215.489
36.6589
147.042
186.978
285.331
390.679
79.7835
79.7867
79.78
79.78
79.7799
79.78
221.526
79.78
79.78
186.625
79.3467
377.873
241.746
79.78
79.78
79.7796
79.7797
72.4613
28.7196
440.488
12.396
79.8388
79.78
639.163
145.828
405.184
79.78
80.2163
79.78
79.78
79.78
11.9761
79.7805
79.7792
14.616
79.7367
44.5217
12.4694
433.943
79.78
79.8157
79.78
79.78
79.7783
173.065
79.7799
79.6329
79.78
301.245
104.234
54.4739
80.9614
389.943
79.7798
79.78
346.919
91.3162
82.6285
868.528
95.8717
108.067
107.847
79.78
35.8003
431.562
79.8055
79.78
34.3801
79.78
210.514
77.0013
236.187
79.78
43.0867
79.78
79.78
79.6626
79.78
659.492
79.7802
204.133
79.7758
79.8204
195.646
221.615
208.918
148.525
39.4107
111.443
177.891
79.78
51.7036
19.0298
79.78
297.093
79.7864
301.484
17.6129
78.781
79.7799
882.142
280.935
59.9224
79.5132
19.1721
401.034
272.237
79.78
179.095
79.7802
621.087
62.0781
217.931
330.017
320.289
79.9125
114.491
850.308
857.525
79.9566
145.171
79.78
79.78
211.056
320.428
48.8641
79.78
254.662
79.78
79.78
79.78
102.725
252.367
209.082
188.841
623.641
79.7797
14.4354
420.211
79.7795
487.001
76.1923
79.78
79.7801
106.412
59.7456
79.78
143.195
119.433
79.78
514.488
79.78
187.121
224.329
79.78
79.8029
79.78
79.78
79.78
79.7687
159.001
494.056
79.78
19.7881
79.7809
793.987
236.465
690.179
76.6886
56.4529
79.7872
79.7634
843.494
76.4178
79.8337
18.984
79.78
100.974
79.78
79.78
233.568
79.783
776.981
79.78
79.78
678.946
79.78
79.7957
79.78
15.1652
122.282
376.187
402.262
79.709
73.5457
79.78
625.514
124.025
12.1997
79.78
57.7902
278.003
79.78
649.903
79.8202
546.845
38.1666
79.7804
56.4131
79.78
79.78
76.5644
79.78
79.78
111.678
110.2
20.9528
79.78
79.7801
79.9612
94.6347
79.78
38.1401
79.78
80.5422
60.6398
79.7803
138.116
181.16
43.9854
189.048
79.7791
931.508
165.576
79.7801
79.1333
436.922
105.466
93.5575
11.8527
18.2088
39.6354
487.756
392.876
63.3727
79.78
40.9422
31.2948
79.78
465.055
406.752
79.78
212.986
79.8655
63.0024
183.917
79.78
210.711
412.057
79.78
79.78
111.546
606.845
78.9388
79.779
79.6444
28.9754
79.7737
467.992
92.576
167.658
79.78
79.7786
19.5809
239.171
79.834
219.999
79.7797
79.7857
207.98
391.291
79.78
87.5791
393.393
12.6829
405.74
79.78
40.3643
79.7774
89.7367
79.78
79.7866
284.445
13.6326
79.78
319.912
74.5863
79.7803
30.2935
79.7711
188.023
75.4899
79.78
20.308
897.965
402.872
79.78
401.563
79.779
57.5343
79.78
428.28
79.7789
327.144
204.331
26.4623
12.2465
79.78
387.251
96.9389
79.6588
35.4824
78.5756
870.02
79.78
187.147
16.8713
42.5712
56.9092
560.969
90.0437
79.78
793.319
79.78
74.79
83.3178
79.78
444.682
62.1085
79.781
79.7957
38.1811
88.4693
79.7754
79.7849
79.78
194.967
305.973
39.061
56.6922
52.6517
289.476
385.486
173.886
79.802
79.78
163.607
79.7756
79.7859
79.7804
79.8178
463.014
315.816
316.459
79.6926
48.5449
79.7772
30.067
58.7683
494.262
79.78
79.78
79.78
26.0888
230.097
31.8166
144.675
18.2517
142.408
80.0184
95.3517
79.78
79.78
120.737
79.78
67.229
240.263
79.78
79.78
179.348
371.965
13.3546
79.7811
79.78
79.7791
177.814
15.4723
852.159
115.988
15.5022
148.452
373.075
79.78
141.864
563.998
349.049
79.8007
334.774
12.3642
154.825
98.3405
174.402
79.78
15.2983
79.78
79.7825
46.8225
79.78
79.7867
79.7885
53.0271
82.635
26.4221
79.5513
79.6492
79.7778
16.3742
156.798
79.78
79.78
74.5849
79.78
913.537
77.3747
79.7801
79.78
421.807
746.626
79.78
921.948
79.78
12.0137
17.1519
79.7814
79.78
152.97
90.8654
80.041
640.983
79.78
294.687
31.3313
499.263
48.6695
55.3207
79.78
69.6413
79.8127
79.78
876.915
79.7796
718.594
176.766
79.78
638.284
79.78
190.44
248.718
79.78
79.7791
371.682
66.2479
79.8326
81.8682
232.976
79.8362
78.6264
470.878
79.7752
79.78
79.78
79.78
293.747
630.498
80.1094
79.78
26.1468
94.9026
95.4901
130.164
271.533
79.7801
151.385
79.78
79.78
233.79
360.407
79.8404
29.9367
58.2322
61.2366
64.3866
79.78
109.883
259.897
14.6623
47.3272
79.7796
38.9559
202.368
80.023
242.987
46.4556
780.097
79.7801
79.78
79.78
190.748
203.175
79.78
11.1483
329.238
53.2938
79.78
520.181
79.7826
79.78
515.032
79.78
44.5823
79.7942
82.9379
340.116
77.4677
330.776
79.7999
738.299
247.223
79.78
674.96
236.66
144.779
79.78
951.103
48.026
343.249
876.342
49.7196
21.1489
79.78
305.965
79.78
79.7063
66.853
865.013
260.861
228.63
546.9
93.8415
119.537
79.7784
79.7794
79.78
283.415
351.979
79.78
404.324
67.228
79.7789
83.3967
56.2718
155.199
69.2853
79.7277
79.78
368.494
79.78
79.78
62.2464
79.78
208.848
24.2068
79.8601
79.778
799.821
108.739
79.78
79.7897
399.911
116.572
79.2674
103.816
61.137
900.833
79.7112
239.902
899.707
33.0025
314.273
17.0379
79.7737
822.736
167.743
79.78
647.529
279.256
649.637
79.7805
59.4034
647.694
72.3401
79.7799
79.78
160.54
79.7799
508.478
79.78
139.49
394.479
79.78
79.7796
79.78
79.77
79.7797
46.6664
79.78
81.2562
37.2485
16.3413
24.1134
84.6652
79.78
240.117
79.7717
893.128
20.4409
79.78
11.6547
79.78
164.894
186.525
599.131
79.7758
611.948
55.4447
147.054
48.1293
261.253
183.154
178.063
79.78
109.07
259.79
784.862
79.7902
584.682
158.081
79.7799
172.624
390.489
22.5832
152.014
46.3478
79.7784
79.78
452.428
79.78
888.633
79.7179
79.78
842.232
79.78
16.111
831.02
212.028
76.6687
79.78
680.697
79.7802
21.2033
79.78
140.88
79.7827
415.53
79.7582
364.676
54.6594
390.333
79.7655
79.7797
172.197
340.314
79.7764
855.867
79.8147
79.78
72.1738
79.78
331.573
79.7801
210.696
79.7776
157.238
82.5909
51.326
79.7806
79.78
217.472
533.62
79.7792
265.708
79.78
12.2133
367.562
79.78
650.067
67.7659
378.718
16.1795
79.8033
80.1525
79.7801
79.78
59.5915
79.7799
61.0319
89.6301
79.78
79.7806
79.8022
79.78
79.7244
79.78
81.7235
17.9083
311.195
79.78
79.78
79.7798
44.7687
16.8647
79.78
79.7794
413.327
413.34
466.637
233.303
406.078
79.7767
414.314
79.78
166.363
47.5267
60.8225
494.241
79.78
79.7801
68.1469
151.158
48.5428
892.184
79.7759
79.8098
79.78
776.533
47.0189
22.3601
79.7797
11.5797
79.5727
15.8972
725.594
328.952
79.78
79.78
49.8477
18.479
79.78
17.6887
48.8225
120.836
79.7927
178.695
630.868
47.304
79.7825
21.7956
79.78
79.78
79.78
171.435
79.7646
79.7783
286.141
388.006
79.7782
79.78
79.7718
463.08
78.1721
547.393
79.78
79.786
24.6709
79.78
79.78
79.78
101.055
529.513
46.6552
79.78
246.384
17.1213
79.78
167.24
106.763
75.3533
79.7817
79.7775
776.797
91.2734
135.877
79.7798
79.7754
79.7892
52.2319
79.7799
27.9039
536.261
47.074
79.6825
124.282
769.825
359.588
624.996
277.959
79.8247
137.193
14.7072
79.779
79.78
60.5905
79.7903
485.242
79.78
129.174
79.7751
179.962
879.819
79.8041
89.404
79.78
458.294
79.78
470.443
79.7773
49.7615
603.373
79.6873
176.897
690.077
79.78
178.766
79.78
474.592
338.532
79.78
232.269
79.78
79.7718
76.3787
78.724
893.827
79.78
572.462
79.78
79.78
80.1742
892.733
79.78
149.222
79.78
493.285
64.6982
380.044
146.65
680.758
306.675
75.3116
78.851
76.2757
79.7801
310.253
221.882
60.1452
13.4724
145.892
79.78
79.7801
79.78
154.42
811.029
79.78
79.78
79.78
79.78
335.021
79.7987
80.482
438.835
79.78
79.7827
874.455
141.181
79.78
79.7801
410.906
18.8624
79.78
135.385
365.382
78.515
79.7799
806.297
174.629
749.965
79.78
79.7802
79.78
787.739
195.647
11.5768
78.8007
153.663
274.22
459.196
312.336
286.654
226.352
80.2346
62.3122
79.8532
99.3736
79.9443
79.7757
359.314
12.3475
16.6269
388.486
195.583
16.1028
219.323
665.46
859.713
79.78
203.394
227.01
79.78
79.7799
51.517
79.78
79.78
79.779
14.1455
100.223
127.751
79.78
213.253
133.608
126.988
78.5745
22.5217
79.78
79.7798
382.844
59.507
79.7941
169.724
350.751
32.7311
93.0421
291.19
103.739
79.7796
79.779
291.868
79.78
800.967
202.179
79.776
119.701
444.59
750.771
79.78
347.332
191.029
79.4905
868.913
61.9695
687.785
79.78
794.689
53.7292
13.2692
79.7787
393.599
13.5032
243.86
16.5472
79.78
264.095
479.307
688.301
315.701
23.0635
79.78
175.982
79.78
75.1232
79.78
53.9355
79.7802
79.78
865.746
426.802
572.246
580.015
836.676
168.066
281.535
79.78
11.461
79.8371
68.4676
79.78
347.146
23.7878
549.678
46.7855
825.443
79.7784
79.78
167.213
307.286
58.1499
79.78
79.8568
398.05
79.3196
656.72
79.78
76.922
79.78
30.2691
79.78
17.1029
60.1282
79.7835
112.495
292.842
127.999
80.338
79.7799
61.442
79.7812
79.7796
99.0833
79.78
90.6086
74.2969
184.261
79.7806
79.7799
157.796
79.7791
79.782
79.7569
79.78
79.78
143.278
232.254
79.78
79.7702
12.0818
30.0758
79.7811
513.077
79.78
79.7758
86.2997
26.6251
79.7801
79.2553
79.8422
11.9592
79.1681
79.7798
96.8886
79.78
766.905
79.78
27.9833
79.7804
265.71
98.2393
79.7809
445.246
55.7709
928.775
701.469
18.3067
20.1802
79.7744
786.879
79.78
79.786
79.78
141.564
139.106
317.732
702.113
79.78
537.758
272.037
79.7801
276.897
65.327
79.6741
79.78
361.665
481.097
591.038
79.8321
51.6194
79.6784
113.369
79.78
948.405
447.004
79.78
81.9545
76.9659
256.596
79.78
144.918
482.25
79.78
217.06
464.397
845.19
21.1832
79.7799
216.306
265.034
105.4
131.694
59.1727
79.7796
687.328
511.07
80.0332
79.78
472.015
132.247
79.78
79.8629
58.037
246.908
161.752
192.311
521.795
143.777
82.4499
79.78
433.099
660.557
79.78
79.7744
79.78
58.8623
28.6723
79.7798
842.327
392.249
79.7848
79.7799
79.78
407.895
79.7736
545.097
79.7801
79.78
167.404
56.729
152.438
206.637
142.192
79.9375
71.3214
28.9926
43.9799
256.06
776.167
45.7696
136.691
840.329
12.1068
97.0384
79.78
79.778
860.817
59.0316
32.5939
59.3556
366.181
125.009
79.7785
79.78
232.229
79.78
79.7751
704.049
79.7991
79.78
966.848
70.3356
79.7824
79.762
393.597
597.175
79.7834
321.44
79.78
683.193
794.529
53.6779
79.78
303.252
79.78
115.748
79.78
79.78
79.78
79.78
79.7709
358.654
79.7799
79.775
19.0171
79.7884
125.412
95.1673
12.3448
79.7792
29.1844
167.552
363.557
755.502
77.7781
20.2522
47.8001
103.474
228.725
79.78
766.726
424.516
79.7798
117.465
101.914
59.7432
64.8407
14.5196
79.78
36.379
623.19
13.3122
196.843
322.19
14.1491
79.7754
71.5528
115.754
304.656
12.4604
342.373
79.7719
267.751
711.942
165.421
79.78
15.228
79.78
498.723
79.7527
19.653
79.78
268.008
42.126
79.7801
412.118
75.5771
503.445
79.78
835.164
70.7954
329.287
79.7124
653.604
79.78
79.78
79.78
429.487
247.21
79.78
162.021
661.347
79.8721
16.8914
200.771
45.6037
79.7753
79.78
15.3922
79.78
602.167
877.417
131.517
15.4174
299.513
18.4915
871.57
42.3609
79.78
682.746
646.392
53.984
184.21
79.7776
340.033
334.609
169.26
61.527
534.335
79.789
433.64
279.591
15.3943
140.863
75.4956
882.194
212.896
50.3858
80.1854
796.596
762.318
79.78
315.997
79.78
321.223
79.78
79.78
204.616
65.5007
815.271
79.78
244.975
468.5
869.21
77.8981
12.506
79.7033
204.829
79.842
464.498
12.6649
79.78
10.8563
112.927
79.7795
79.78
51.9209
79.7786
79.7791
357.254
79.8346
79.7807
79.78
79.78
79.7803
60.87
17.235
79.78
70.748
79.4856
134.991
79.78
684.927
79.8448
44.382
79.7804
148.203
141.935
79.78
79.78
79.78
79.78
40.8643
79.78
65.7892
848.905
79.78
75.2149
46.0926
482.938
129.418
872.548
79.788
107.622
523.498
587.266
15.5841
79.78
48.478
217.965
79.78
41.4571
528.155
46.6605
79.8599
751.685
499.287
79.787
43.6864
79.788
410.74
79.8886
725.298
254.756
49.3232
79.78
492.966
79.7815
79.7799
412.942
58.6924
79.7817
177.426
212.585
45.9875
799.521
573.765
79.7805
423.986
79.888
722.788
487.361
79.78
36.1637
563.96
368.414
489.718
129.919
395.18
285.978
291.918
32.0117
103.364
79.78
786.405
16.8431
84.8413
79.78
555.349
24.4858
93.2916
79.78
56.0941
712.377
20.6231
120.766
115.532
96.2643
582.675
79.7775
462.282
79.8135
79.78
411.12
79.7802
778.137
109.345
79.7799
79.78
51.0914
222.063
29.8611
158.36
545.945
19.1969
250.83
426.543
358.749
230.615
165.825
79.7802
79.6187
79.6414
149.529
79.78
794.141
824.285
79.78
68.0584
79.78
219.293
179.87
146.261
13.3197
79.78
79.7794
848.771
663.4
614.867
79.78
363.013
79.7787
683.287
193.748
79.7799
470.544
782.044
172.24
127.932
79.7399
43.3534
209.559
488.109
79.78
402.207
167.905
149.301
79.7771
447.356
79.78
79.78
88.7284
365.913
131.415
328.789
522.905
79.78
364.468
60.8615
329.35
79.78
14.272
123.119
141.17
79.7801
529.536
189.572
79.7801
80.0796
271.648
858.013
79.776
79.78
36.5975
550.206
79.78
79.7791
79.78
128.779
739.38
72.2014
507.897
79.7757
305.505
79.7785
756.145
209.14
348.798
79.78
87.5801
168.077
79.7799
15.5279
16.1183
875.834
79.2512
15.1823
215.527
20.0475
348.474
570.302
544.221
79.78
80.8295
80.1345
26.3521
712.843
715.673
143.163
33.4181
877.489
136.237
633.076
121.716
196.333
78.1345
16.4953
79.7803
203.562
90.2999
287.363
79.7778
68.1947
396.835
75.7481
36.0533
79.8535
79.78
500.034
633.973
79.7776
626.816
79.7811
79.8845
386.6
141.142
125.284
91.0666
442.73
79.8602
72.3785
79.78
79.78
744.671
79.7803
79.78
34.2164
273.824
145.739
475.403
16.8638
79.8146
79.8107
794.465
59.8024
79.78
165.52
296.404
79.7855
67.9192
297.5
325.945
461.785
385.012
55.8875
166.418
743.54
78.9574
125.817
79.78
394.85
79.78
160.566
128.735
706.368
24.5552
133.681
251.044
645.733
611.093
79.78
74.9816
154.249
220.071
247.984
84.2338
251.309
89.6505
139.969
140.387
172.624
79.7796
615.476
48.0983
105.004
49.9223
25.9906
79.78
79.7784
390.5
59.6817
79.761
451.012
886.013
188.342
79.78
79.7847
15.7136
320.962
446.704
79.7793
110.828
93.7646
79.7821
56.4564
348.679
397.993
79.7731
38.7248
11.7543
79.78
79.78
192.371
79.7744
142.47
160.582
79.78
11.8191
10.8434
568.911
604.05
41.8351
79.7886
79.78
79.3616
402.666
785.939
416.432
206.192
674.083
26.319
79.7802
769.09
517.039
32.3334
79.78
11.0976
69.8427
373.104
79.78
490.678
79.825
554.233
573.662
411.335
227.305
307.436
617.129
79.78
97.8114
53.7177
79.78
79.78
79.78
79.7842
79.7795
79.78
88.1017
256.265
79.7777
527.366
96.0064
79.7795
932.542
569.457
632.822
356.812
79.78
79.7441
48.9226
51.5494
525.376
79.7783
20.5478
25.2624
176.788
130.44
79.7797
79.78
79.9527
79.7782
111.424
80.8241
532.701
593.268
16.0245
79.7219
79.78
172.512
79.7799
79.78
79.7697
499.223
386.309
79.778
435.464
432.21
461.356
214.009
20.3267
79.78
134.246
163.586
79.7799
363.593
79.7787
91.3771
233.749
135.6
79.7801
215.453
79.78
488.057
79.7794
37.3709
429.138
255.175
277.143
78.6379
876.974
283.334
51.9162
522.877
30.9907
79.7803
79.7363
512.338
17.7866
107.755
693.215
79.78
76.9415
22.4098
108.811
20.5539
128.06
121.79
79.7915
695.265
889.473
79.78
708.51
40.4957
170.439
182.921
771.775
80.8113
79.78
79.8515
43.6434
877.923
79.78
79.78
391.62
561.226
123.162
257.979
132.587
734.978
79.7205
77.8038
173.85
707.958
126.501
621.392
124.443
46.9979
79.7617
60.089
129.923
35.4205
79.7803
79.78
582.489
46.1722
79.779
12.3474
153.61
79.78
885.126
722.299
79.7812
159.177
79.7807
245.047
79.78
394.922
58.8156
586.045
723.079
79.7814
519.317
132.602
18.9154
25.1735
428.53
418.25
370.589
34.3361
43.0385
14.1972
17.6461
79.7802
79.78
79.7767
79.78
483.147
50.606
457.435
79.78
510.38
79.7832
79.7804
387.02
813.78
581.29
310.292
393.985
68.2974
554.123
181.704
78.6617
79.7801
79.78
140.266
79.78
79.78
61.7803
79.4481
347.349
79.738
79.78
246.335
79.7802
492.594
82.9017
249.083
36.5856
30.3153
79.78
26.8066
24.1681
19.8823
572.526
79.8185
300.321
500.21
44.3882
463.599
26.8352
31.1203
79.7946
83.9863
405.58
591.596
45.2309
111.634
67.6567
56.9641
24.9015
150.728
57.6391
748.147
685.41
79.7801
79.78
79.7792
19.8104
186.348
79.78
79.7839
79.2483
108.547
79.78
79.8497
710.228
321.813
80.2075
687.664
24.24
156.177
69.3926
24.5715
352.465
448.956
79.78
330.837
553.1
225.123
79.7605
79.7799
383.569
125.852
270.396
155.055
369.948
79.78
334.723
79.78
324.985
79.7805
79.7798
25.4162
595.821
378.839
945.627
12.0064
79.7725
310.826
87.8611
512.813
33.4427
79.78
79.7762
372.686
79.78
492.675
529.281
79.6884
445.116
480.795
64.1779
12.4567
63.889
15.8242
85.8986
79.78
50.4415
79.78
79.7812
79.7786
79.78
79.7921
79.78
93.0831
81.2681
79.78
143.601
79.78
79.7799
79.5722
79.7799
340.57
137.096
33.4015
344.875
461.458
302.771
79.7807
444.111
79.7807
97.917
79.662
79.7797
52.1032
295.189
79.6615
445.031
425.107
20.2394
524.845
319.629
79.7663
580.971
22.556
198.984
79.8971
527.442
42.1251
145.485
130.552
79.78
266.253
28.2274
326.88
79.78
643.936
79.78
42.1753
79.78
79.7923
79.78
107.134
171.507
247.679
854.459
79.7624
16.9025
178.866
79.7898
79.7757
94.6694
350.708
70.1083
79.7799
79.7785
57.3773
424.181
79.78
125.41
532.613
213.02
79.7735
79.78
185.09
439.711
82.976
556.704
349.677
80.0258
176.403
761.44
925.716
79.78
21.9757
30.8408
11.4692
79.7762
305.406
657.177
79.7873
89.5328
398.066
52.6606
79.7836
82.9364
267.938
55.427
79.78
507.511
708.787
872.621
301.391
53.9656
79.78
86.4673
79.78
343.116
226.102
87.5697
625.95
79.7867
60.8781
45.0726
870.814
94.0109
79.7809
36.9463
124.818
542.741
60.1226
679.561
25.7714
101.775
191.805
78.9595
79.7762
275.121
202.638
174.176
633.724
79.7804
79.5785
79.78
617.395
251.657
79.788
78.9305
79.78
269.94
98.8916
50.7846
365.725
79.7727
119.859
79.7427
111.321
207.42
102.454
557.123
142.283
79.7777
138.467
49.7991
81.6689
79.7774
80.0299
526.097
79.7797
293.952
125.251
495.361
415.456
849.55
132.378
536.603
97.0011
50.8794
404.279
152.77
79.7802
80.8029
106.859
102.471
55.5308
127.036
186.403
296.382
79.7864
79.7799
245.168
34.4821
64.4078
73.5017
79.7728
115.114
78.479
290.425
837.473
613.762
515.045
168.948
507.391
13.3158
79.7803
142.341
605.76
302.452
525.06
276.321
47.2389
79.78
320.373
79.78
473.338
505.535
69.2604
104.664
699.859
79.78
17.8418
80.108
255.753
484.798
546.795
428.922
79.7547
393.914
915.488
47.1
79.7802
29.8826
79.7791
372.624
118.533
79.7806
506.83
73.7462
852.68
218.172
378.83
32.5326
668.347
454.973
533.234
79.78
258.448
902.7
150.711
41.8424
16.0556
79.78
79.7804
508.872
79.7756
319.302
103.355
79.78
79.78
333.169
322.098
19.0836
203.017
79.7792
372.24
79.7798
79.78
62.6307
41.3977
79.78
138.505
177.538
531.521
810.746
266.988
500.031
394.231
176.731
178.573
144.192
812.273
79.7725
147.507
230.025
507.046
79.7873
176.43
79.7677
152.434
165.713
218.443
118.155
277.434
523.723
151.563
60.8781
97.5495
15.736
98.1016
447.56
235.107
88.6354
79.78
277.026
143.047
76.3485
125.381
103.772
79.7801
79.7846
200.714
79.7902
141.832
903.951
15.5965
79.7798
474.779
79.7827
130.077
384.307
79.7491
87.0004
218.311
79.7902
196.468
741.796
109.868
385.909
448.687
385.931
689.126
79.7175
79.78
79.78
511.689
81.9329
79.7801
79.78
301.949
633.598
269.797
378.921
387.632
54.1815
79.7794
150.81
70.1466
114.226
74.0246
290.488
58.7928
79.7822
79.78
350.161
334.733
428.932
79.7806
871.01
149.551
79.777
137.093
79.7801
341.192
96.0045
79.8245
467.339
286.591
213.078
284.029
272.381
283.537
205.174
13.8726
299.664
126.497
150.099
82.9263
20.3025
79.762
168.869
104.74
79.78
57.5375
58.9055
413.922
159.818
79.78
441.018
591.63
80.1634
411.575
333.831
83.7096
40.6312
79.7801
74.1156
422.669
480.6
150.557
105.562
493.454
396.684
44.028
100.376
41.2034
246.327
79.3427
18.6918
413.505
381.664
151.64
79.7696
159.842
537.7
943.66
93.8651
267.285
317.859
79.78
490.356
415.722
79.7832
79.9287
725.281
79.777
241.822
606.415
79.7645
79.7725
121.618
79.7516
113.282
18.9586
20.939
370.551
79.7719
635.85
59.3062
30.1795
135.516
440.989
365.508
221.206
465.263
124.947
379.461
79.8259
183.598
79.78
274.548
386.806
263.655
79.7803
149.306
132.42
121.815
254.251
211.036
79.7803
135.686
24.1594
62.9497
241.618
79.7673
22.3108
84.1963
340.096
54.5459
79.7587
79.7788
42.9563
18.3844
76.915
79.6864
61.4308
257.889
108.38
79.6311
114.998
327.605
79.7599
79.78
614.409
79.78
527.722
250.152
79.7802
59.8247
558.118
79.7796
60.2181
79.78
137.133
332.368
180.213
428.546
218.112
895.992
447.835
135.029
79.8485
418.062
246.057
101.128
331.719
79.78