/*--------------------------------*- C++ -*----------------------------------*\
| =========                 |                                                 |
| \\      /  F ield         | OpenFOAM: The Open Source CFD Toolbox           |
|  \\    /   O peration     | Version:  2406                                  |
|   \\  /    A nd           | Website:  www.openfoam.com                      |
|    \\/     M anipulation  |                                                 |
\*---------------------------------------------------------------------------*/
FoamFile
{
    version     2.0;
    format      ascii;
    arch        "LSB;label=32;scalar=64";
    class       volScalarField;
    location    "0.0008000341512";
    object      rho;
}
// * * * * * * * * * * * * * * * * * * * * * * * * * * * * * * * * * * * * * //

dimensions      [1 -3 0 0 0 0 0];

internalField   nonuniform List<scalar> 
17141
(
0.00102459
0.00102459
0.00102459
0.000910601
0.00102459
0.00147802
0.00198283
0.00110941
0.00101332
0.00102797
0.00102459
0.00102459
0.00303979
0.00102459
0.000414338
0.00102161
0.00102459
0.00331429
0.00362218
0.000447015
0.00139215
0.00102459
0.00149313
0.000238573
0.00102459
0.00102459
0.00102519
0.00102459
0.001626
0.000580595
0.000965137
0.00102459
0.00102461
0.00146805
0.00164841
0.000603206
0.00102459
0.0010186
0.00102459
0.00101158
0.000389683
0.000984114
0.0010267
0.00421859
0.00150994
0.0010254
0.00239242
0.000567659
0.00102459
0.00102462
0.00102462
0.00102459
0.00142793
0.00398799
0.00102458
0.00191713
0.000984525
0.00102099
0.00233678
0.00364981
0.000110448
0.00102465
0.000823112
0.00102459
0.00336903
0.00102043
0.00102479
0.00102239
0.00257293
0.00102459
0.000200732
0.00371499
0.00100664
0.00102459
0.00102459
0.00102459
0.00102459
0.000344903
0.00370472
0.00102459
0.00102459
0.00416266
0.00181587
0.00102459
0.00102403
0.00295517
0.00102459
0.000534946
0.00102459
0.00102459
0.00102459
0.00138579
0.000280916
0.000363055
0.00101394
0.00102459
0.00102693
0.00102446
0.00149302
0.00102469
0.00102459
0.00106871
0.00102459
0.00102459
0.00102459
0.00417017
0.00102459
0.00249917
0.00102459
0.00102459
0.00113316
0.00196051
0.00348203
0.00102073
0.00102481
0.000347962
0.00102518
0.0010249
0.00103107
0.00321473
0.000759957
0.00102459
0.0010256
0.00102467
0.00212809
0.00165974
0.00289829
0.000394363
0.00102459
0.00102463
0.00099381
0.00102459
0.000316989
0.00102459
0.000335205
9.29786e-05
0.00118649
0.00376016
0.00102292
0.00123961
0.00142326
0.0010246
0.00102459
0.00412791
0.00313302
0.00102459
0.00371511
0.0010247
0.00158001
0.00102459
0.000343992
0.00208651
0.00372717
0.000225799
0.00102484
0.00102459
0.00102459
0.000384961
0.00102459
0.00102459
0.00102459
0.00112043
0.0010147
0.00133636
0.00313972
0.00102459
0.001664
0.00154178
0.00102459
0.00102459
0.00102459
0.00102459
0.00101829
0.00102459
0.00354733
0.000215724
0.000450291
0.00285425
0.00102462
0.000252716
0.00102459
0.00102461
0.00100673
0.00102459
0.00284231
0.00101348
0.00102459
0.00102458
0.00107006
0.0018673
0.00102458
0.00102528
0.00102466
0.00102459
0.00301684
0.00390527
0.00282178
0.00113296
0.00328034
0.0003273
6.01026e-05
0.000464886
0.00278097
0.00151495
0.000887642
0.00092007
0.00105352
0.00102459
0.00392782
0.00102458
0.00020384
0.00102579
0.00102541
0.00397609
0.00136246
0.00270213
0.000215043
0.00102446
0.00102459
0.000365556
0.00102459
0.00102459
0.00102459
0.00101813
0.00186888
0.00102142
0.000417502
0.00102459
0.00102461
0.00102457
0.00255617
0.00100894
0.00196654
0.000267057
0.00102459
0.000407702
0.00102053
0.000609903
0.0010246
0.000416884
0.000546482
0.00372144
0.00353913
0.00323813
0.00102464
0.0010243
0.00393463
0.00383407
0.00061494
0.00102459
0.00102465
0.00267256
0.00106565
0.00187646
0.00099593
0.00331898
0.00223418
0.00102459
0.00101744
0.00102459
0.00102459
0.00383428
0.00102459
0.0009561
0.00338638
0.00102426
0.00102105
0.000813877
0.00368863
0.00335748
0.00102459
0.00102463
0.00102674
0.00102459
0.00102459
0.00102577
6.50791e-05
0.000995194
0.000316842
0.00324263
0.00198359
0.00228467
0.00102457
0.00118381
0.00040902
0.000925236
0.00102459
0.00102459
0.00393557
0.00102491
6.73788e-05
0.00102459
0.00136234
6.45403e-05
0.000917988
0.00250733
0.000196655
0.00102556
0.000131472
0.000726417
0.00102459
0.00101752
0.00274105
0.00102462
0.00102459
0.00248096
0.00102497
0.000477575
0.00102459
0.00102459
0.00146895
0.00102302
0.00103123
0.000156465
0.000954686
0.00192438
0.00102455
0.000927833
0.00329664
0.00267881
0.00017779
0.00258754
0.00399445
0.000388479
0.000996846
0.00336007
0.00185748
0.00071875
0.000157465
0.00102459
0.00328172
0.00102459
0.00159116
0.00325972
0.00102459
0.00102458
0.00102459
0.000379624
0.00398416
0.000190077
0.00218097
0.00101597
0.0034644
0.00102459
0.00102459
0.00103399
0.00154702
0.00102459
0.00387736
0.00102459
0.00102459
0.000158063
0.00207144
0.00318181
0.0041595
0.00101435
0.00102447
0.00102459
0.00102459
0.0019777
0.00102459
0.00102459
0.00102459
0.00102458
0.000405556
0.00102459
0.00102459
0.00103392
0.00166386
0.00185008
0.00102459
0.00102459
0.00370484
0.00160492
0.00228348
0.00033895
0.00229905
0.0027684
0.000179271
0.00116137
0.00102459
0.00227648
0.00102459
0.00173412
0.00102457
0.00079283
0.00102457
0.00102381
0.00102459
0.00230029
0.00104962
0.00267078
0.00081787
0.0010247
0.00102459
0.000204367
0.00103308
0.00322611
0.000225163
0.00102459
0.00102459
0.00178524
0.00043056
0.00280959
0.000372536
0.00102459
6.93641e-05
0.00102459
0.00102459
0.00102459
0.0010258
0.00102049
0.00207293
0.00102448
0.000318969
0.00101046
0.00048897
0.00185836
0.00102457
0.00305661
0.00327681
0.00102459
0.00102459
0.00126015
0.00102459
0.000955875
0.00102459
0.00102459
0.00314574
0.0010249
0.0010304
0.0010268
0.00102459
0.00102459
0.000974236
0.00102459
0.00102459
0.000457074
0.000190718
0.00102427
0.00102459
0.00102459
0.00102459
0.00102459
0.00102463
0.00127276
0.00102459
0.00102759
0.00101738
0.000868586
0.00102463
0.00102481
0.00227601
0.00228499
0.00112089
0.00263457
0.00102459
0.00102449
0.00102459
0.000241521
0.000654119
0.000482309
0.00102458
0.000791476
0.000177294
0.00381055
0.00102459
0.00102459
0.00232223
0.00102459
0.00346162
0.00188543
0.00101551
0.00019676
0.00392597
0.00102459
0.00102459
0.00356837
0.00102894
0.000462316
0.0017529
0.00102459
0.00340355
0.00102459
0.000391853
0.0036236
0.000584255
0.00102459
0.00102459
0.000199049
0.00102459
0.000246131
0.000165514
0.00102459
0.0021887
0.000525189
0.00102459
0.00214623
0.00226289
0.00194918
0.000499852
0.001025
0.00102459
0.00340672
0.00102459
0.00183363
0.00102458
0.00102459
0.00258898
0.00242898
0.00102281
0.00101109
0.000297175
0.00200969
0.00102459
0.00102444
0.00381561
0.000454958
0.00167367
0.00102459
0.000334616
0.00102458
0.00102459
0.00102459
0.00102458
0.00102459
0.00099255
0.00102459
0.0010246
0.00102459
0.00234489
0.00247872
0.00102459
0.00102458
0.00102454
0.00102459
0.000745909
0.00199936
0.00102459
0.000321554
0.00174851
0.00102468
0.00102459
0.00102643
0.00160905
0.00102459
0.00271371
0.000473968
0.00102459
0.00101449
0.00102459
0.000909618
0.00332729
0.00102459
0.00102459
0.00278438
0.00400822
0.00154692
0.000894282
0.000988951
0.000228104
0.000199848
0.00102459
0.00120136
0.00120204
0.00102459
0.00102459
9.13837e-05
0.00233919
0.00102459
0.00102458
0.00301968
0.00251037
0.000415817
0.000864736
0.00101987
0.00102459
0.00280099
6.23221e-05
0.000298203
0.000977767
0.00383004
0.00102433
0.000453167
0.000169003
0.00102458
0.00273062
0.00102459
0.00141579
0.00102459
0.00232643
0.0010248
0.00410607
0.00223445
0.00307888
0.00380252
0.000681801
0.00169442
0.00102459
0.00131928
0.00232736
0.00102458
0.00102459
0.00102459
0.0039234
0.00102459
0.00102459
0.00102459
0.000840515
0.00347701
0.0010633
0.00101569
0.00275865
0.00102459
0.00129652
0.000443443
0.00102459
0.00102449
0.000290765
0.00272666
0.000735167
0.00173567
0.000397359
0.00102459
0.00102133
0.000363124
0.00256164
0.00101786
0.00102468
0.00253582
0.000283705
0.00311023
0.00102459
0.00197272
0.00102459
0.00131686
0.00102459
0.00102459
0.00102459
0.00101853
0.000984128
0.00102459
0.00102459
0.00102447
0.00102459
0.00102459
0.0010246
0.00379089
0.00102458
0.00400654
0.00102459
0.00102459
0.00102459
0.00281772
0.00102413
0.00170022
0.000127858
0.00102459
0.00230934
0.00102459
0.00172262
0.00102459
0.00388156
0.00100264
0.00102459
0.00208646
0.00102459
0.00158893
0.00253641
0.00352716
0.0006629
0.00101996
0.00175185
0.00390167
0.0010245
0.000192188
0.000215619
0.00102467
0.00097933
0.00165531
0.00102459
0.00102459
0.0039931
0.00102459
0.0018093
0.00102435
0.00102459
0.0013549
0.00102457
0.00102459
6.41082e-05
0.0022168
0.00102459
0.00116438
0.00200343
0.00102459
0.00173386
0.0013881
0.00102459
0.000329904
0.0010246
0.000384986
0.00102459
0.00412934
0.000957477
0.00102459
0.00102459
0.000987781
0.00102459
0.00382707
0.000315762
0.00102459
0.000205431
0.00102509
0.00268647
0.00145072
0.00102527
0.00102459
0.00102459
0.00357207
0.000299294
0.00102459
0.0010246
0.000241114
8.02284e-05
0.00102464
0.0010236
0.000797593
0.000370777
0.000489465
0.00115162
0.00102463
0.00102736
0.00170836
0.00102558
0.00102458
0.0033749
0.00102419
0.00171696
0.00263465
0.00102468
0.00128515
0.000983349
0.00342591
0.00398188
0.00120689
0.00102485
0.0026897
0.00249219
0.000943687
5.56463e-05
0.000928647
0.00102459
0.00260083
0.00102459
0.00298976
0.00140657
0.00331841
0.00102459
0.000898669
0.00102479
0.00128896
0.00102457
0.0010235
0.00391382
0.00102479
0.00102459
0.00102459
0.00102459
0.00184839
0.00102459
0.000446455
0.000672608
0.00102407
0.00102459
0.000340053
0.00102459
0.00101424
0.00237983
0.00102459
0.00146566
0.00127749
0.00102456
0.00325248
0.00102459
0.00279234
0.000205277
0.00102459
0.00103084
0.00102459
0.00102463
0.000427856
0.00208583
0.0016821
0.00102459
0.0014106
0.0010246
0.00102459
0.00102459
0.00102793
0.00304479
6.35701e-05
0.00102459
0.00303217
0.000973488
0.00162138
0.00102459
0.00102459
0.000372747
0.00102191
0.000399181
0.00143517
0.0010246
0.000286954
0.00256227
0.00416707
0.000473559
0.000995656
0.00102459
0.000455277
0.00102459
0.00282745
0.00108558
0.00102473
0.00102459
0.00110653
0.000994872
0.00175186
0.00255085
0.00102459
0.00102129
0.000174733
0.00105304
0.00102455
0.00159463
0.00139672
0.00102457
0.00268743
0.00101981
0.00102459
0.000214677
0.00102459
0.00102459
0.000756509
0.000229122
0.00102459
0.000663505
0.00102459
0.00179228
0.00260574
0.00102459
0.00175549
0.00102459
0.00144458
0.00102462
0.00102459
6.37944e-05
0.0034888
0.00110341
0.00363372
0.0010248
0.000870205
0.00103089
0.0025823
0.00102459
0.00134481
0.000483828
0.00146655
0.00107783
0.00102459
0.00248123
0.000369607
0.00167059
0.00115019
0.00112231
0.00245708
0.000225978
0.00102469
0.00102337
0.00098989
0.00102459
0.00102594
0.000314474
0.00102459
0.00262733
0.00172724
0.00089653
0.00193522
0.00107276
0.00175202
0.00102459
0.00102459
0.00030929
0.00102459
0.00418737
7.52754e-05
0.00253058
0.000127423
0.00102459
0.00257732
0.0010473
0.00111474
0.00251155
0.000838535
0.00102469
0.00102385
0.00034281
0.00256146
0.00327116
0.00291139
0.00102459
0.00102459
0.00102459
0.00126383
0.00239566
0.00387625
0.00102459
0.00102338
0.00153178
0.000927728
0.000472711
0.00102554
0.00102459
0.000985322
0.0004234
0.00102458
0.00178082
0.00102459
0.00102457
0.00208844
0.00102457
0.00102457
0.00100709
0.00102459
0.00102459
0.00102459
0.00102456
0.00216626
0.00102459
0.00123893
0.000328054
0.00174188
0.00212009
0.00102346
0.00405339
0.00102459
6.43906e-05
0.00102459
0.00102459
0.0010246
0.00163599
0.00102458
0.00407228
0.00102459
0.000327808
0.00121652
0.00102459
0.00102459
0.000173149
0.0026059
0.000405175
0.00102459
0.000388835
0.000322558
0.00102917
0.00102459
0.00168471
0.000379634
0.000189358
0.00102459
4.92068e-05
0.000425389
0.00102459
0.00102459
0.00142559
0.00102459
0.00102459
0.000980881
0.000180571
0.00101054
0.00105538
0.00374367
0.000419224
0.000332648
0.00102459
0.00349589
0.00130467
0.00102459
8.91053e-05
0.00102459
0.00019736
0.00102459
0.00102459
0.00102459
0.00102491
0.000373486
0.0010246
0.00102454
0.00102459
0.00102617
0.00102528
0.000995704
0.00335564
0.00238006
0.00265646
0.000874772
0.00313361
0.00122884
0.00133408
0.00415848
0.00165889
0.000255944
0.00173784
0.000568654
0.00102459
0.00102459
0.00102459
0.0011291
0.003877
0.0012617
0.000388696
0.000479569
0.000181079
0.00102459
0.000528639
0.000799979
0.00102459
0.00102459
0.00318842
0.000883358
0.00034863
0.00403632
0.00157069
0.00387548
0.00416834
0.00102451
0.00365801
0.00273758
0.00370847
0.00262671
0.00287668
0.00102459
0.000980001
0.000411623
0.00102459
0.0010246
0.00267194
0.000386682
0.00111646
0.000382831
0.00102459
0.00398138
0.00102453
0.00102459
0.00102456
0.000150652
0.0010246
0.00193396
0.0026594
0.00102459
0.00153853
0.000826778
0.00219466
0.00102524
0.000479357
0.00102459
0.00102459
0.000323626
0.000340386
0.000187767
0.00118745
0.00102459
0.00250827
0.00102459
0.000954548
0.000330157
0.00117131
0.000159781
0.00115376
0.00044562
0.00102455
0.00154224
0.00115982
0.00154049
0.0001858
0.00119285
0.00102015
0.00225517
0.00289542
0.00348748
0.000575639
0.00366256
0.00102459
0.00343407
0.00102223
0.00235051
0.00102057
0.0010118
0.0001849
0.00102459
0.00102459
0.00354503
0.00126603
0.00102456
0.00102447
0.00102459
0.00102459
0.00102459
0.00102384
0.00102489
0.00102459
0.00102459
0.00102459
0.00102459
0.00102222
0.00370809
0.000114211
0.00102459
0.00102459
0.00231193
0.00131381
0.000239922
0.00102459
0.00360499
0.000272446
0.00148023
0.00102459
0.00353667
0.000335077
0.000956679
0.00205731
0.000594921
0.00102459
0.00228319
0.00102459
0.00200056
0.00102458
0.00363749
0.00144031
0.000948763
0.00102457
0.000451273
0.00101788
0.00102459
0.00102459
0.00102459
0.00102459
0.00338424
0.000359362
0.0037064
0.00102459
0.00241527
0.00102459
0.00102459
0.000205884
0.00335871
0.00101646
0.000959744
0.00102579
0.00301164
0.00140041
0.00403362
0.00102459
0.00102459
0.000218038
0.000355777
0.00207089
0.00102459
0.000996425
0.000308014
6.3277e-05
0.00102274
0.00102459
0.0028039
0.00179012
0.00102459
0.00102459
0.000283894
0.00128939
0.00144631
0.000292615
0.00117901
0.00102459
0.00186333
0.00102459
0.00103122
0.00102456
0.00218463
0.00102459
0.00351024
0.0012738
0.00122828
0.00167104
0.00102459
0.00102495
0.00165656
0.00295893
0.00102459
0.00102459
0.00369216
0.0021817
0.000852318
0.00128616
0.000272779
0.00102459
0.00262235
0.00355844
0.00266339
0.00102295
0.000160502
0.00102424
0.00304139
0.00096524
0.00283131
0.000152189
0.00423746
0.0010142
0.00140776
0.00140326
0.00258686
0.00108577
0.00108179
0.00102531
0.00102388
0.00102459
0.00299866
0.00419182
0.00102459
0.000644711
0.00378337
0.00101597
0.00102459
0.00106856
0.00102459
0.00102197
0.000371739
0.00196917
0.00102459
0.00102459
0.00102459
0.00353661
0.000166608
0.00102459
0.000713691
0.00101913
0.00413161
0.00102459
0.00245646
0.00340724
0.00102459
0.00102454
0.00102461
0.00102457
0.00102461
0.00140484
6.63204e-05
0.00276033
0.00386345
0.00288686
0.00179104
0.000190773
0.000307931
0.00139986
0.000207716
0.00146104
0.00102459
0.00102481
0.00154701
0.0036917
0.000999839
0.00102459
0.00263021
0.00102459
0.00096931
0.00102459
0.00102459
0.00102459
0.000202669
0.00102459
0.0024944
0.00102459
0.00297093
0.000292736
0.000199594
0.00357829
0.00102459
0.00101954
0.00102459
0.00102459
0.00102459
0.000673553
0.000489555
0.00102459
0.00102459
0.00352337
0.000219015
0.00102503
0.00102459
0.000338457
0.00300353
9.54958e-05
0.00226491
0.00112241
0.00102459
0.00102459
0.000474605
0.000936604
0.00102459
0.00271205
0.00102459
0.00290972
0.000353332
0.0010246
0.00257531
0.000486899
0.00274245
0.000618803
0.00190847
0.00131116
0.000348965
0.00140676
0.00136361
0.00200262
0.00252979
0.00102463
0.00102465
0.00102459
0.00102459
0.00102459
0.00102459
0.00150154
0.00102459
0.00102459
0.00168249
0.0010207
0.00240568
0.00166696
0.00102459
0.00102459
0.00102458
0.00102458
0.000973937
0.000340982
0.00285452
0.000169568
0.00102516
0.00102459
0.00342474
0.00146638
0.00275786
0.00102459
0.00102802
0.00102459
0.00102459
0.00102459
0.000150868
0.00102459
0.00102458
0.000204723
0.00102424
0.000382775
5.2816e-05
0.00253904
0.00102459
0.00102492
0.00102459
0.00102459
0.00102457
0.00165626
0.00102459
0.0010232
0.00102459
0.00198699
0.00112963
0.000343142
0.00103462
0.00234421
0.00102459
0.00102459
0.00211491
0.00111272
0.00104977
0.00403182
0.000844197
0.000955616
0.00116458
0.00102459
0.000347672
0.00234644
0.00102483
0.00102459
0.000256309
0.00102459
0.00160547
0.00099939
0.00160419
0.00102459
0.000174614
0.00102459
0.00102459
0.00102425
0.00102459
0.00348243
0.00102459
0.00171018
0.00102456
0.00102496
0.00172357
0.00195867
0.00184157
0.00122978
0.000490115
0.00122931
0.00168345
0.00102459
0.000388784
0.000209633
0.00102459
0.00242295
0.00102466
0.00171255
0.000234647
0.00101577
0.00102459
0.00407995
0.00223124
0.000452553
0.00102216
0.000250533
0.00225911
0.00217753
0.00102459
0.00153582
0.00102459
0.00340119
0.00088923
0.00191829
0.00240036
0.00243528
0.00102598
0.00108814
0.00410426
0.00392607
0.0010255
0.00145906
0.00102459
0.00102459
0.00186566
0.00217063
0.00038883
0.00102459
0.00216807
0.00102459
0.00102459
0.00102459
0.000903352
0.00207173
0.00148679
0.00169257
0.00339192
0.00102458
0.000199898
0.0025986
0.00102458
0.00287136
0.0009932
0.00102459
0.00102459
0.000919692
0.000528035
0.00102459
0.00138047
0.00111864
0.00102459
0.00287321
0.00102459
0.0014389
0.00152023
0.00102459
0.0010248
0.00102459
0.00102459
0.00102459
0.00102448
0.00131514
0.00314255
0.00102459
9.32411e-05
0.0010246
0.00385931
0.00188546
0.00363745
0.00100019
0.000394384
0.00102466
0.00102452
0.00394092
0.000997363
0.0010251
0.000237825
0.00102459
0.00113825
0.00102459
0.00102459
0.00186776
0.00102461
0.00380834
0.00102459
0.00102459
0.00318578
0.00102459
0.00102473
0.00102459
0.000157375
0.0010037
0.00258536
0.00259819
0.00102415
0.000828232
0.00102459
0.0033303
0.00115089
0.00016806
0.00102459
0.000515738
0.0018821
0.00102459
0.00314567
0.00102498
0.00306435
0.00043384
0.00102459
0.00040048
0.00102459
0.00102459
0.000859636
0.00102459
0.00102459
0.000614421
0.00124274
0.000247302
0.00102459
0.00102459
0.00102598
0.00113109
0.00102459
0.000380264
0.00102459
0.00103094
0.000480123
0.00102459
0.00139885
0.00152666
0.000409758
0.00159071
0.00102456
0.00411415
0.00160066
0.00102459
0.00101886
0.00235748
0.00113731
0.00113088
0.000135596
0.000125165
0.000463751
0.00277912
0.00240107
0.000766127
0.00102459
0.000503915
0.000302876
0.00102459
0.0025622
0.00271536
0.00102459
0.00148467
0.00102538
0.000887851
0.00137326
0.00102459
0.00144346
0.0028213
0.00102459
0.00102459
0.000928186
0.00344073
0.00101693
0.00102459
0.00102334
0.000124348
0.00102452
0.00258325
0.00112283
0.00138169
0.00102459
0.00102457
0.000265674
0.00161771
0.00102508
0.00195688
0.0010246
0.00102463
0.0016189
0.00240155
0.00102459
0.000916372
0.0026081
0.000181552
0.00281355
0.00102459
0.00045086
0.00102456
0.00110568
0.00102459
0.00102465
0.00219181
8.61266e-05
0.00102459
0.00212815
0.000986826
0.00102459
0.000378076
0.00102451
0.00170174
0.00098655
0.00102459
0.000266594
0.00413299
0.00244113
0.00102459
0.00242487
0.00102458
0.000606752
0.00102459
0.00291226
0.00102458
0.00186177
0.00160978
0.000323508
0.000112542
0.00102459
0.00257926
0.00087109
0.0010235
0.000407291
0.00101561
0.00405813
0.00102459
0.00172415
0.000215489
0.000378053
0.000487432
0.00299324
0.000844325
0.00102459
0.00390481
0.00102459
0.000979807
0.00096462
0.00102459
0.00263205
0.000415503
0.0010246
0.00102474
0.000376685
0.000833673
0.00102454
0.00102465
0.00102459
0.00157613
0.00228841
0.000456471
0.000489981
0.000224731
0.00223488
0.0019789
0.00159678
0.00102481
0.00102459
0.00152308
0.00102455
0.00102464
0.00102459
0.00102494
0.00242011
0.0020984
0.00211628
0.00102361
0.000217634
0.00102457
0.000290457
0.000443437
0.00262596
0.00102459
0.00102459
0.00102459
0.00024808
0.00160157
0.00018655
0.00112957
0.000217558
0.000978039
0.00102906
0.000693612
0.00102459
0.00102459
0.000962664
0.00102459
0.00066744
0.0019913
0.00102459
0.00102459
0.0016131
0.00248601
0.000191394
0.0010246
0.00102459
0.00102458
0.00163069
0.000210696
0.00396764
0.00123913
0.000216976
0.00114791
0.00270947
0.00102459
0.00123903
0.00327978
0.00263407
0.00102478
0.00253295
0.000176783
0.00131189
0.000648889
0.00131041
0.00102459
0.000198246
0.00102459
0.00102463
0.000375569
0.00102459
0.00102465
0.00102468
0.000315464
0.0010495
0.000291855
0.00102266
0.00102336
0.00102457
0.000231968
0.00154275
0.00102459
0.00102459
0.00098903
0.00102459
0.00408571
0.00100755
0.00102459
0.00102459
0.00235593
0.00371772
0.00102459
0.00414115
0.00102459
0.000158687
0.000236674
0.0010246
0.00102459
0.00127978
0.000928549
0.00102694
0.00329584
0.00102459
0.0021203
0.000203443
0.00258059
0.000547006
0.000252385
0.00102459
0.00072916
0.00102488
0.00102459
0.00406093
0.00102458
0.00362075
0.00130754
0.00102459
0.0035128
0.00102459
0.00161142
0.00213903
0.00102459
0.00102458
0.00228648
0.000657816
0.00102506
0.00104111
0.00194344
0.00102511
0.000969625
0.00301095
0.00102454
0.00102459
0.00102459
0.00102459
0.00199793
0.0030669
0.0010292
0.00102459
0.000203758
0.00110579
0.00102401
0.00135842
0.0021141
0.00102459
0.00112578
0.00102459
0.00102459
0.00203917
0.00222699
0.00102517
0.000381289
0.000707858
0.000327945
0.000900641
0.00102459
0.000893246
0.00139396
0.000152718
0.000358635
0.00102459
0.000482863
0.00153888
0.00102645
0.00206391
0.000391512
0.00368323
0.00102459
0.00102459
0.00102459
0.00139445
0.00164808
0.00102459
0.000110132
0.00257446
0.000333756
0.00102459
0.00305774
0.00102461
0.00102459
0.00270821
0.00102459
0.000174277
0.00102472
0.000887668
0.002504
0.00100814
0.00218408
0.00102478
0.00333831
0.00213182
0.00102459
0.00361845
0.00195373
0.00145482
0.00102459
0.00425226
0.000255529
0.00233037
0.00408673
0.000299765
0.000284511
0.00102459
0.00206041
0.00102459
0.00102379
0.000798604
0.00404214
0.00213759
0.00153752
0.00292493
0.000632101
0.00129036
0.00102457
0.00102458
0.00102459
0.00232642
0.00212658
0.00102459
0.00252553
0.000743843
0.00102458
0.000883116
0.000319294
0.00136568
0.000771489
0.00102381
0.00102459
0.0026012
0.00102459
0.00102459
0.000583571
0.00102459
0.00144087
0.000298336
0.00102537
0.00102457
0.00387481
0.000933724
0.00102459
0.00102466
0.0025901
0.00110658
0.001021
0.000896455
0.000333126
0.00412611
0.00102408
0.00200225
0.0041175
0.000353053
0.00234442
6.59938e-05
0.00102452
0.00388135
0.00120996
0.00102459
0.00335944
0.00216569
0.00332193
0.00102459
0.000465706
0.00320509
0.000741773
0.00102459
0.00102459
0.00154481
0.00102459
0.00266528
0.00102459
0.00133723
0.002829
0.00102459
0.00102458
0.00102459
0.00102447
0.00102459
0.000569324
0.00102459
0.00103768
0.000469291
0.000226609
0.000297245
0.000909312
0.00102459
0.00201244
0.00102452
0.00410574
0.000258647
0.00102459
0.000163309
0.00102459
0.00154057
0.00166876
0.00297041
0.00102455
0.00333213
0.000533316
0.00140054
0.000240977
0.0021477
0.00137291
0.00164069
0.00102459
0.000626727
0.00214181
0.00371484
0.00102468
0.0029953
0.00138184
0.00102459
0.0016256
0.00262485
0.000284726
0.00125887
0.000400314
0.00102457
0.00102459
0.00277861
0.00102459
0.00397625
0.00102403
0.00102459
0.00392413
0.00102459
0.000210119
0.00397727
0.00133374
0.00077846
0.00102459
0.0033474
0.00102459
0.000280011
0.00102459
0.00119926
0.0010246
0.0025047
0.00102441
0.00245129
0.000413374
0.00256301
0.00102446
0.00102459
0.0011053
0.00258869
0.00102458
0.00397796
0.00102491
0.00102459
0.00080201
0.00102459
0.00257698
0.00102459
0.00155196
0.00102457
0.00153032
0.000895742
0.000626813
0.00102459
0.00102459
0.00150613
0.00275521
0.00102458
0.00217948
0.00102459
0.000168788
0.00259653
0.00102459
0.00323439
0.000708135
0.00247512
6.94914e-05
0.0010248
0.0010294
0.00102459
0.00102459
0.000440157
0.00102459
0.000489088
0.00094479
0.00102459
0.00102459
0.00102479
0.00102459
0.00102416
0.00102459
0.000721551
0.000228911
0.00188306
0.00102459
0.00102459
0.00102459
0.000177736
6.51577e-05
0.00102459
0.00102458
0.00250726
0.00238682
0.00263535
0.00196872
0.0026881
0.00102456
0.00245792
0.00102459
0.00122195
0.00053394
0.000499342
0.0028472
0.00102459
0.00102459
0.000713294
0.00148208
0.000321222
0.00410681
0.00102456
0.00102487
0.00102459
0.00364251
0.000348862
0.000252039
0.00102459
0.000156404
0.00102267
0.000200612
0.00351827
0.00255985
0.00102459
0.00102459
0.000345761
0.000240614
0.00102459
0.000219012
0.000423607
0.00113665
0.0010247
0.000932386
0.00324815
0.000434729
0.00102461
0.000261994
0.00102459
0.00102459
0.00102459
0.00162108
0.00102444
0.00102457
0.00152558
0.00279468
0.00102457
0.00102459
0.00102451
0.00258782
0.00101282
0.00277781
0.00102459
0.00102462
0.000262717
0.00102459
0.00102459
0.00102459
0.00111669
0.00297084
0.00040982
0.00102459
0.00202878
0.000209547
0.00102459
0.00146696
0.000941111
0.00074703
0.0010246
0.00102456
0.00379074
0.00111644
0.0011719
0.00102459
0.00102455
0.00102467
0.000293898
0.00102459
0.000310413
0.00301352
0.00020115
0.00102399
0.00114376
0.003728
0.00266297
0.0034092
0.00227149
0.00102502
0.00120777
0.000192269
0.00102458
0.00102459
0.000607617
0.00102468
0.00255353
0.00102459
0.00118483
0.00102454
0.00150732
0.00404911
0.0010248
0.000500687
0.00102459
0.00307664
0.00102459
0.00273278
0.00102456
0.000246529
0.00302088
0.00102372
0.00130201
0.00356213
0.00102459
0.00166709
0.00102459
0.00273764
0.00238904
0.00102459
0.00126885
0.00102459
0.00102451
0.000995362
0.00102118
0.00412129
0.00102459
0.00319193
0.00102459
0.00102459
0.00102681
0.00412322
0.00102459
0.00129697
0.00102459
0.00312656
0.000909947
0.00264187
0.00123665
0.00351409
0.00180137
0.00075352
0.00101847
0.000757149
0.00102459
0.00193221
0.00197611
0.000499466
0.000192845
0.00122649
0.00102459
0.00102459
0.00102459
0.00133143
0.00379647
0.00102459
0.00102459
0.00102459
0.00102459
0.00205547
0.00102475
0.0010296
0.00289511
0.00102459
0.00102461
0.00404935
0.00141362
0.00102459
0.00102459
0.00244201
0.000218535
0.00102459
0.00136532
0.00234799
0.00101538
0.00102459
0.00373242
0.00135998
0.00369055
0.00102459
0.00102459
0.00102459
0.0037901
0.0013663
6.31548e-05
0.00101754
0.00145141
0.00224102
0.00259262
0.00208567
0.00174207
0.0019334
0.00102806
0.0003929
0.00102526
0.00116898
0.00102622
0.00102455
0.00252267
0.000165787
6.48791e-05
0.00263474
0.0015727
0.000224849
0.00184199
0.00346337
0.00398046
0.00102459
0.0016331
0.00152451
0.00102459
0.00102459
0.00024538
0.00102459
0.00102459
0.00102458
0.000188824
0.000878103
0.000837292
0.00102459
0.00188857
0.00106114
0.00100085
0.00101398
0.000283477
0.00102459
0.00102459
0.00267422
0.00046631
0.00102449
0.00126137
0.00236509
0.000227544
0.000978935
0.00177907
0.000925476
0.00102458
0.00102458
0.00199189
0.00102459
0.003841
0.00149412
0.00102455
0.00096864
0.00284386
0.00358226
0.00102459
0.00260244
0.00139868
0.00102145
0.00396503
0.000425484
0.00356624
0.00102459
0.00378252
0.000276072
0.000190474
0.00102457
0.00236221
0.000180237
0.00153704
6.82336e-05
0.00102459
0.00211765
0.00285287
0.00336319
0.00249515
0.000278281
0.00102459
0.00151658
0.00102459
0.000996109
0.00102459
0.000405103
0.00102459
0.00102459
0.00403018
0.00280621
0.00291529
0.00323446
0.00384663
0.00145406
0.00179235
0.00102459
0.000165184
0.00102502
0.000928956
0.00102459
0.00217669
0.000289027
0.00322996
0.000424225
0.00400193
0.00102457
0.00102459
0.00135765
0.00209201
0.000656504
0.00102459
0.00102523
0.00238492
0.00102056
0.00330893
0.00102459
0.00100178
0.00102459
0.000293125
0.00102459
6.70573e-05
0.00027093
0.00102464
0.00124251
0.00240881
0.00128815
0.000938045
0.00102459
0.000831816
0.00102459
0.00102458
0.00105906
0.00102459
0.000947734
0.000693181
0.0017209
0.00102459
0.00102459
0.0013442
0.00102458
0.00102461
0.00102447
0.00102459
0.00102459
0.00123103
0.00142521
0.00102459
0.00102451
0.000167897
0.000326303
0.0010246
0.00269135
0.00102459
0.00102458
0.000752359
0.00023558
0.00102459
0.00101972
0.00102516
5.77551e-05
0.00101908
0.00102459
0.00116447
0.00102459
0.003761
0.00102459
0.000361754
0.00102459
0.00209132
0.000844481
0.0010246
0.00283558
0.000496681
0.0040785
0.00363098
0.000217077
0.000257176
0.00102453
0.0037066
0.00102459
0.00102464
0.00102459
0.0012093
0.00134242
0.00250043
0.00342152
0.00102459
0.00281253
0.001822
0.00102459
0.00226208
0.000631878
0.00102376
0.00102459
0.00265591
0.00310562
0.003268
0.00102507
0.000627049
0.00102389
0.000775006
0.00102459
0.00424595
0.00291622
0.00102459
0.00103439
0.000999988
0.00173753
0.00102459
0.00138938
0.00298199
0.00102459
0.0017071
0.00298159
0.00395861
0.000287094
0.00102459
0.00167787
0.00179371
0.00114499
0.00104351
0.000554412
0.00102458
0.00357866
0.0026956
0.0010267
0.00102459
0.00270162
0.00104265
0.00102459
0.00102538
0.000483049
0.00167738
0.001229
0.00143427
0.00296025
0.00111844
0.0010451
0.00102459
0.00239567
0.00335468
0.00102459
0.00102454
0.00102459
0.000276139
0.000334415
0.00102459
0.00391337
0.00235409
0.00102462
0.00102459
0.00102459
0.00279456
0.00102453
0.00327743
0.00102459
0.00102459
0.00142592
0.000688581
0.00130938
0.00181106
0.00140476
0.00102604
0.000967789
0.000246862
0.000527347
0.00167799
0.00377935
0.000482441
0.00107459
0.00388544
0.00016331
0.00114901
0.00102459
0.00102457
0.00399471
0.000477071
0.000392481
0.000316756
0.00268024
0.000892495
0.00102457
0.00102459
0.00117354
0.00102459
0.00102454
0.00359002
0.00102432
0.00102459
0.00421024
0.000638886
0.0010246
0.00102433
0.00201038
0.00305925
0.00102466
0.00196787
0.00102459
0.00322595
0.00379073
0.000228983
0.00102459
0.0019091
0.00102459
0.00097117
0.00102459
0.00102459
0.00102459
0.00102459
0.00102451
0.00179379
0.00102459
0.00102454
0.000226198
0.00102467
0.00112057
0.000854103
0.000148905
0.00102457
0.000319689
0.00155684
0.00265666
0.00373591
0.001006
0.000265691
0.0004179
0.00120456
0.00166696
0.00102459
0.00370903
0.00272432
0.00102459
0.00123335
0.00108748
0.000370424
0.000628626
0.000205002
0.00102459
0.000318785
0.00316171
0.000140978
0.00160984
0.00233446
0.000198903
0.00102455
0.000739527
0.00107726
0.0021903
5.31583e-05
0.00208796
0.00102451
0.00224851
0.00349306
0.00121113
0.00102459