/*--------------------------------*- C++ -*----------------------------------*\
| =========                 |                                                 |
| \\      /  F ield         | OpenFOAM: The Open Source CFD Toolbox           |
|  \\    /   O peration     | Version:  2406                                  |
|   \\  /    A nd           | Website:  www.openfoam.com                      |
|    \\/     M anipulation  |                                                 |
\*---------------------------------------------------------------------------*/
FoamFile
{
    version     2.0;
    format      ascii;
    arch        "LSB;label=32;scalar=64";
    class       volScalarField;
    location    "0.0008000341512";
    object      T;
}
// * * * * * * * * * * * * * * * * * * * * * * * * * * * * * * * * * * * * * //

dimensions      [0 0 0 1 0 0 0];

internalField   nonuniform List<scalar> 
17141
(
270.65
270.65
270.65
250.426
270.65
368.509
457.725
490.523
267.619
271.325
270.65
270.65
663.811
270.65
351.431
270.577
270.65
569.553
666.768
460.662
324.68
270.65
351.12
292.307
270.65
270.65
270.775
270.65
428.287
363.177
260.086
270.65
270.653
395.619
500.648
343.011
270.65
322.16
270.65
269.264
297.852
319.934
270.896
791.535
420.274
270.765
481.812
337.881
270.65
270.653
270.652
270.65
341.506
717.057
270.65
401.762
266.924
270.236
478.123
645.448
371.08
270.656
418.602
270.65
713.367
270.328
270.671
270.564
446.099
270.65
250.158
714.515
268.556
270.65
270.65
270.65
270.65
362.898
700.109
270.65
270.65
749.269
408.91
270.65
270.534
666.784
270.65
355.043
270.651
270.65
270.65
366.397
288.24
277.039
269.719
270.65
270.895
270.636
350.224
270.668
270.65
281.118
270.65
270.65
270.65
786.628
270.65
527.513
270.65
270.65
450.585
403.807
641.458
270.138
270.681
288.824
270.746
270.68
272.048
659.19
288.318
270.65
270.735
270.66
406.221
367.674
597.451
275.321
270.65
270.653
260.517
270.65
356.039
270.65
654.516
438.363
497.482
691.72
270.442
515.074
342.195
270.651
270.65
710.678
709.006
270.65
756.342
270.657
425.367
270.65
273.624
405.11
712.163
283.007
270.671
270.65
270.65
275.279
270.65
270.65
270.65
291.357
269.533
329.723
572.539
270.65
499.631
362.901
270.65
270.65
270.65
270.65
269.947
270.65
749.458
249.402
338.689
660.269
270.65
280.657
270.65
270.652
268.179
270.65
657.551
418.388
270.65
270.649
276.205
384.245
270.65
270.867
270.665
270.65
707.516
717.985
618.46
308.729
678.713
664.546
794.213
426.643
520.967
360.11
244.197
401.27
423.652
270.65
721.562
270.649
247.84
270.754
270.732
741.847
500.534
503.278
246.053
270.638
270.65
293.281
270.65
270.65
270.65
269.838
384.612
270.273
589.532
270.65
270.652
270.663
556.865
265.95
476.727
285.289
270.65
302.038
270.174
343.015
270.652
597.621
284.558
633.475
754.495
548.268
270.656
270.591
730.9
710.103
349.256
270.65
270.653
606.101
474.415
431.744
266.885
716.99
413.291
270.65
269.771
270.65
270.65
714.358
270.65
320.669
730.367
270.583
269.705
414.703
700.365
730.022
270.65
270.649
270.88
270.65
270.65
270.738
899.842
403.04
320.275
602.928
544.699
542.452
270.653
312.089
330.54
253.203
270.651
270.65
766.249
270.686
665.879
270.65
332.19
862.907
318.944
455.671
248.726
269.76
619.965
345.215
270.65
268.159
578.199
270.653
270.65
657.064
270.693
446.63
270.65
270.65
370.805
270.421
271.939
306.581
306.171
521.979
270.655
305.014
569.533
601.155
256.791
509.447
739.096
276.95
263.083
599.44
384.95
343.201
277.294
270.65
728.596
270.65
493.561
603.225
270.65
270.649
270.65
276.003
752.43
243.706
409.566
268.811
731.551
270.65
270.65
274.328
423.992
270.65
737.732
270.65
270.65
274.261
406.853
598.429
766.307
269.571
270.629
270.65
270.65
543.359
270.65
270.65
270.65
270.649
425.099
270.65
270.65
271.262
368.813
533.958
270.65
270.65
644.577
492.657
545.738
271.917
422.061
652.936
439.465
484.744
270.65
660.827
270.65
391.685
270.647
384.662
270.648
270.564
270.65
421.292
322.943
578.211
416.338
270.661
270.65
304.306
272.724
676.275
819.837
270.65
270.65
392.493
272.23
507.762
362.167
270.65
608.891
270.65
270.65
270.65
270.958
269.983
607.583
270.626
441.561
268.815
344.072
535.229
270.649
591.661
707.852
270.65
270.65
317.982
270.65
254.749
270.65
270.65
671.852
270.456
270.121
270.836
270.65
270.65
259.623
270.65
270.65
453.56
244.227
270.67
270.65
270.65
270.65
270.65
270.655
484.822
270.65
270.988
269.159
391.198
270.648
270.688
422.548
557.403
448.255
462.314
270.65
270.639
270.65
250.311
393.973
438.099
270.649
385.062
259.219
762.314
270.65
270.65
441.261
270.65
662.54
401.567
305.299
260.304
668.589
270.65
270.65
697.415
271.538
426.315
389.796
270.65
610.24
270.65
478.09
704.306
345.337
270.65
270.65
446.448
270.65
259.498
262.194
270.65
407.165
347.155
270.65
555.144
586.061
605.042
419.586
270.69
270.65
726.743
270.65
399.088
270.65
270.65
665.71
551.611
270.475
266.369
423.001
476.415
270.65
270.63
734.816
309.226
388.71
270.65
341.055
270.649
270.65
270.651
270.649
270.65
304.252
270.65
270.651
270.65
601.88
551.825
270.65
270.649
270.645
270.65
288.843
619.657
270.65
268.924
435.038
270.632
270.65
270.785
364.801
270.65
533.4
437.032
270.65
491.483
270.65
245.698
582.178
270.65
270.65
524.06
747.321
362.243
309.005
267.047
827.3
241.154
270.65
458.389
453.524
270.65
270.65
541.417
652.776
270.65
270.65
741.658
481.601
276.709
307.843
270.164
270.651
515.127
865.208
307.108
264.862
709.858
270.568
463.482
293.582
270.649
725.913
270.65
506.357
270.65
422.736
270.677
755.482
582.236
593.581
761.205
399.637
434.658
270.65
490.469
560.226
270.652
270.65
270.65
726.498
270.65
270.65
270.65
612.621
728.682
275.88
267.68
562.08
270.65
391.479
471.45
270.65
270.637
259.964
494.922
284.193
525.134
275.235
270.65
520.725
440.819
605.723
268.145
269.378
560.133
276.567
667.354
270.65
395.241
270.65
556.652
270.65
270.65
270.65
269.923
266.776
270.65
270.65
270.633
270.65
270.65
270.651
699.424
270.649
749.1
270.65
270.65
270.65
576.398
270.594
389.498
662.845
270.65
661.054
270.65
523.183
270.65
770.146
267.89
270.65
551.746
270.65
365.318
502.286
638.512
524.986
268.764
394.306
744.441
270.641
493.995
308.292
270.658
265.851
367.441
270.65
270.65
750.426
270.65
381.721
270.625
270.65
521.118
270.648
270.65
893.558
591.67
270.65
293.004
403.753
270.65
396.527
364.38
270.65
295.84
270.651
277.549
270.65
756.513
304.169
270.65
270.65
305.672
270.65
700.933
319.517
270.65
243.616
270.532
603.158
363.469
270.732
270.65
270.65
637.732
281.58
270.65
270.651
250.375
520.271
270.654
270.556
414.552
276.119
278.265
401.565
270.653
271.164
377.792
270.707
270.65
707.809
270.536
445.505
636.923
270.658
388.834
266.022
610.662
737.145
404.859
270.559
537.99
652.371
252.482
819.121
400.335
270.65
610.707
270.65
663.71
544.325
675.651
270.65
365.189
270.681
327.647
270.654
273.535
741.397
270.668
270.65
270.65
270.65
518.391
270.65
274.677
338.316
270.585
270.65
341.427
270.65
268.675
655.306
270.65
357.651
499.392
270.647
712.656
270.65
504.735
243.014
270.65
271.45
270.65
270.653
307.467
570.735
361.956
270.65
348.374
270.655
270.65
270.65
270.927
554.621
856.572
270.65
556.331
327.424
583.451
270.651
270.65
368.874
270.218
491.243
339.324
270.651
275.872
497.887
764.426
431.681
327.258
270.65
324.527
270.65
614.908
278.437
270.664
270.65
445.904
267.011
463.904
529.866
270.65
272.471
245.495
365.954
270.648
579.202
356.228
270.648
561.86
511.255
270.65
247.278
270.65
270.65
511.148
256.862
270.65
336.826
270.65
378.425
638.281
270.65
375.954
270.65
358.355
270.653
270.65
875.517
685.726
307.514
703.382
270.679
362.5
271.987
455.351
270.65
325.259
416.232
418.949
363.249
270.65
528.914
326.006
411.792
450.225
526.537
483.283
274.12
270.649
270.563
266.435
270.65
270.78
658.125
270.65
532.855
390.657
306.918
699.36
368.535
392.258
270.65
270.65
267.725
270.65
767.869
663.195
659.802
348.764
270.65
594.374
272.145
468.903
534.92
614.442
270.635
270.597
486.671
593.139
715.7
580.692
270.65
270.65
270.65
417.191
658.626
764.945
270.65
270.86
424.322
307.595
440.436
270.756
270.65
265.673
372.609
270.65
463.552
270.65
270.649
616.974
270.648
270.646
267.448
270.65
270.65
270.65
270.646
588.606
270.65
347.883
317.96
542.821
684.83
270.513
752.692
270.65
853.346
270.65
270.65
270.651
361.162
270.649
751.391
270.65
288.174
327.156
270.651
270.65
284.631
511.003
332.504
270.65
337.455
287.754
271.653
270.65
381.958
479.802
316.151
270.65
813.378
292.634
270.65
270.65
345.162
270.65
270.65
404.189
285.619
268.78
276.16
704.473
293.043
493.666
270.65
683.196
337.275
270.65
448.585
270.65
241.498
270.65
270.65
270.65
270.444
493.796
270.651
270.645
270.65
271.015
270.711
265.109
617.461
552.565
494.412
411.093
713.067
326.495
418.816
765.328
444.616
255.441
380.468
354.928
270.65
270.65
270.65
398.325
756.837
457.899
433.464
342.127
838.998
270.65
282.742
310.408
270.65
270.65
597.935
390.916
266.484
745.862
456.742
741.171
771.273
270.643
723.734
648.963
611.039
516.519
539.626
270.65
265.211
332.043
270.65
270.651
497.343
366.389
325.343
409.678
270.65
736.591
270.627
270.65
270.647
304.35
270.651
393.352
472.637
270.65
356.079
310.652
480.215
270.757
314.228
270.65
270.65
398.017
595.514
291.321
453.451
270.65
525.258
270.65
264.164
651.897
307.77
503.57
325.837
323.093
270.649
359.855
320.779
375.659
613.01
310.088
270.191
480.506
620.257
650.239
282.615
720.991
270.65
634.722
270.39
423.517
270.163
268.749
768.106
270.65
270.65
669.847
326.091
270.648
270.637
270.65
270.65
270.65
270.559
270.667
270.65
270.65
270.65
270.65
268.932
697.037
849.421
270.65
270.65
542.15
324.463
295.579
270.65
692.878
286.096
421.494
270.65
637.8
367.557
256.532
420.724
283.196
270.65
598.486
270.65
507.58
270.649
696.265
413.195
417.202
270.652
469.149
269.614
270.65
270.65
270.65
270.65
653.058
294.768
673.05
270.651
545.372
270.65
270.65
254.86
717.826
269.369
399.15
271.018
667.515
419.652
747.616
270.65
270.65
270.904
302.093
420.372
270.65
325.261
263.399
830.132
270.123
270.65
670.159
544.883
270.65
270.65
258.74
407.409
421.723
264.464
476.488
270.65
621.54
270.65
271.436
270.647
406.887
270.65
640.781
362.317
315.637
384.002
270.65
270.716
386.192
623.54
270.65
270.65
669.892
524.403
396.578
495.899
271.232
270.65
564.497
662.498
643.472
270.427
277.011
270.581
730.228
260.824
612.707
265.396
786.174
269.543
586.879
339.169
459.61
280.005
394.828
270.718
270.414
270.65
518.585
778.633
270.65
387.759
703.016
269.703
270.65
270.253
270.65
325.999
386.951
394.299
270.65
270.65
270.65
653.156
261.343
270.65
285.41
269.838
752.22
270.65
481.295
705.892
270.65
270.644
270.655
270.644
270.652
409.928
905.794
536.661
737.204
670.305
398.763
241.403
290.942
359.768
245.298
452.015
270.65
270.671
493.867
662.35
268.328
270.65
557.846
270.65
254.653
270.65
270.65
270.65
252.355
270.65
439.45
270.65
516.138
551.298
237.84
736.817
270.65
270.301
270.65
270.65
270.65
393.29
422.881
270.65
270.65
735.951
275.824
270.688
270.65
293.452
543.374
718.045
476.942
627.095
270.65
270.65
342.957
251.99
270.65
472.291
270.65
722.233
294.252
270.651
484.572
341.597
712.424
331.649
388.339
571.257
365.141
363.315
476.611
495.238
536.783
270.652
270.658
270.65
270.65
270.65
270.65
512.804
270.65
270.65
385.549
270.206
545.972
504.076
270.65
270.65
270.65
270.65
258.606
292.759
536.369
254.098
270.699
270.65
648.706
345.665
510.674
270.65
271.221
270.65
270.65
270.65
275.92
270.651
270.649
248.157
270.594
404.289
820.622
594.054
270.65
270.684
270.65
270.65
270.649
363.2
270.65
270.518
270.65
526.971
320.728
551.796
271.994
578.185
270.65
270.65
570.165
285.251
273.59
748.766
394.739
393.073
321.885
270.65
357.916
639.288
270.672
270.65
466.238
270.65
455.766
267.81
511.756
270.65
857.682
270.65
270.65
270.34
270.65
658.249
270.65
414.89
270.643
270.688
394.552
393.279
394.322
419.792
279.498
315.105
367.296
270.65
462.248
315.528
270.65
426.198
270.653
611.904
260.903
269.581
270.65
751.53
437.648
460.239
270.387
265.991
617.032
434.558
270.65
405.327
270.65
634.724
242.654
394.882
477.885
457.146
270.732
365.721
720.119
759.192
271.007
345.835
270.65
270.65
393.213
513.106
436.811
270.65
408.277
270.65
270.65
270.65
395.261
423.412
488.799
387.806
639.075
270.65
251.005
562.07
270.65
589.529
266.647
270.65
270.65
402.173
393.284
270.65
360.547
371.104
270.65
622.402
270.65
452.017
512.908
270.65
270.672
270.65
270.65
270.65
270.639
420.232
546.458
270.65
737.667
270.651
715.1
435.927
659.52
266.508
497.543
270.656
270.612
743.957
266.32
270.696
277.455
270.65
308.344
270.65
270.65
434.665
270.653
709.149
270.65
270.65
740.768
270.65
270.666
270.65
334.946
423.47
505.762
538.148
270.526
308.651
270.65
652.855
374.574
252.317
270.65
389.482
513.417
270.65
718.122
270.683
620.282
305.786
270.65
489.623
270.65
270.65
309.582
270.65
270.65
631.776
308.223
294.494
270.65
270.65
270.896
290.813
270.65
348.626
270.65
271.551
439.004
270.65
343.191
412.461
373.116
413.09
270.654
786.991
359.551
270.65
269.965
644.196
322.326
287.559
303.831
505.662
297.072
610.04
568.741
287.518
270.65
282.408
359.146
270.65
630.891
520.674
270.65
498.637
270.732
246.649
465.514
270.65
507.396
507.659
270.65
270.65
417.718
613.043
269.813
270.645
270.519
809.943
270.646
629.703
286.58
421.769
270.65
270.649
256.18
513.891
270.704
390.769
270.647
270.659
446.545
566.333
270.65
332.194
524.283
242.818
501.252
270.65
311.185
270.648
282.1
270.65
270.656
451.085
550.181
270.65
522.505
262.713
270.65
278.506
270.641
384.043
265.97
270.65
264.777
755.193
573.639
270.65
575.612
270.649
329.594
270.65
511.164
270.649
610.77
441.196
284.319
378.234
270.65
521.867
386.811
270.526
302.811
268.92
745.188
270.65
377.286
272.136
391.405
405.819
651.418
370.687
270.65
706.174
270.65
265.318
300.224
270.65
587.245
519.565
270.651
270.665
352.317
368.858
270.647
270.651
270.65
429.963
464.743
297.436
402.168
814.354
450.217
677.093
378.516
270.667
270.65
373.372
270.646
270.655
270.65
270.684
665
523.129
519.765
270.611
775.318
270.647
359.809
460.654
654.233
270.65
270.65
270.65
365.531
499.377
592.818
445.19
291.604
506.104
270.28
477.832
270.65
270.65
435.94
270.65
350.112
419.387
270.65
270.65
386.455
520.071
242.53
270.652
270.65
270.649
379.017
255.249
746.538
325.356
248.339
449.511
478.604
270.65
397.971
597.716
460.598
270.669
459.398
243.102
410.212
526.775
462.601
270.65
268.226
270.65
270.648
433.339
270.65
270.657
270.655
584.267
273.681
314.676
270.383
270.531
270.648
245.355
353.272
270.65
270.65
262.123
270.65
777.18
266.929
270.65
270.65
622.32
698.055
270.65
773.836
270.65
263.147
251.898
270.651
270.65
415.465
340.14
270.913
675.996
270.65
483.09
535.301
672.472
309.263
761.882
270.65
331.977
270.684
270.65
750.577
270.65
689.84
469.901
270.65
631.573
270.65
410.784
404.16
270.65
270.649
565.025
350.051
270.705
273.328
416.681
270.704
281.857
543.586
270.646
270.65
270.65
270.65
511.042
714.574
270.549
270.65
446.033
298.31
324.13
333.058
446.438
270.65
467.405
270.65
270.65
398.507
562.519
270.702
272.906
285.943
649.042
248.489
270.65
427.585
648.056
333.714
458.692
270.65
280.422
457.088
270.981
409.219
412.436
736.177
270.65
270.65
270.65
475.467
428.504
270.65
351.851
444.516
555.023
270.65
591.312
270.652
270.65
661.02
270.65
889.171
270.664
324.762
472.123
267.094
526.414
270.667
768.721
403.088
270.65
648.365
421.04
345.908
270.65
777.447
653.279
511.973
745.351
576.513
258.376
270.65
516.157
270.65
270.611
290.973
743.832
424.177
516.864
649.913
516.026
321.999
270.648
270.65
270.65
423.446
575.305
270.65
556.469
314.147
270.649
328.242
612.581
395.008
312.158
270.678
270.65
492.401
270.65
270.65
370.752
270.65
503.813
282.03
270.715
270.648
717.474
404.791
270.65
270.663
536.674
366.163
269.856
402.532
637.909
758.869
270.552
416.466
759.505
324.915
465.945
897.38
270.646
736.785
481.877
270.65
669.97
448.198
679.74
270.65
443.367
702.414
338.978
270.65
270.65
361.219
270.65
663.122
270.65
362.578
484.678
270.65
270.65
270.65
270.647
270.649
284.911
270.65
272.181
275.886
250.653
281.972
323.635
270.65
414.727
270.639
756.11
274.698
270.65
248.058
270.65
372.036
388.514
701.083
270.646
638.345
361.358
364.959
694.221
422.816
463.7
377.234
270.65
604.906
421.605
734.372
270.66
678.488
397.636
270.65
369.106
517.091
275.691
419.725
402.431
270.65
270.65
565.959
270.65
776.806
270.586
270.65
746.022
270.65
266.515
726.256
552.566
342.33
270.65
706.822
270.65
263.204
270.65
408.321
270.655
576.646
270.624
517.102
459.606
529.357
270.634
270.65
541.512
456.945
270.639
747.842
270.683
270.65
312.798
270.65
447.232
270.65
471.889
270.648
357.141
320.488
284.618
270.65
270.65
501.886
673.195
270.649
423.755
270.65
251.508
492.04
270.65
698.601
332.628
531.843
809.28
270.672
270.644
270.65
270.65
470.587
270.65
433.744
329.748
270.65
270.65
270.671
270.65
270.575
270.65
393.68
271.926
574.423
270.65
270.65
270.65
875.514
899.654
270.65
270.649
573.006
601.937
615.465
411.906
525.083
270.647
585.901
270.65
473.226
309.392
423.378
603.371
270.65
270.65
332.079
354.505
525.27
755.115
270.644
270.677
270.65
741.007
468.47
308.368
270.65
257.345
270.453
275.441
716.85
446.665
270.65
270.65
501.109
266.945
270.65
280.731
400.608
369.514
270.663
666.163
675.096
378.218
270.653
289.162
270.65
270.65
270.65
367.584
270.637
270.648
651.942
482.58
270.648
270.65
270.643
621.994
268.278
684.951
270.65
270.663
326.408
270.65
270.65
270.65
314.546
619.527
395.704
270.65
422.125
284
270.65
396.265
394.314
350.613
270.651
270.648
712.274
284.166
403.011
270.65
270.645
270.658
617.736
270.65
312.456
618.537
813.436
270.476
377.691
717.76
469.356
637.217
425.337
270.688
394.831
265.878
270.649
270.65
346.608
270.66
660.511
270.65
378.951
270.646
414.991
755.261
270.677
620.66
270.65
517.763
270.65
598.363
270.649
701.599
694.251
270.565
472.247
673.366
270.65
372.726
270.65
602.57
492.539
270.65
636.276
270.65
270.642
266.719
267.959
753.848
270.65
623.385
270.65
270.65
271.398
752.573
270.65
399.914
270.65
548.396
247.138
500.019
412.191
673.352
591.75
347.4
269.106
350.161
270.65
558.116
390.278
418.56
242.83
413.456
270.65
270.65
270.65
403.132
742.539
270.65
270.65
270.65
270.65
566.531
270.67
271.703
526.865
270.65
270.653
750.612
347.142
270.65
270.65
584.869
300.012
270.65
344.666
540.896
268.774
270.65
750.875
446.323
706.339
270.65
270.65
270.65
722.429
497.727
637.155
269.18
367.995
425.321
615.633
520.522
571.947
406.936
271.272
551.257
270.72
295.481
270.775
270.645
495.082
258.876
890.779
512.509
432.264
248.928
413.865
667.862
750.73
270.65
432.901
517.579
270.65
270.65
729.752
270.65
270.65
270.649
260.389
396.722
530.335
270.65
392.488
437.644
441.017
269.348
276.15
270.65
270.65
497.609
443.564
270.724
467.696
515.484
499.986
330.361
568.917
389.619
270.65
270.649
509.313
270.65
724.826
470.343
270.646
429.537
543.394
728.473
270.65
463.903
474.725
270.495
761.716
506.242
670.356
270.65
730.263
676.473
242.142
270.65
579.16
260.409
551.465
842.925
270.65
433.48
583.977
711.361
439.787
288.075
270.65
403.334
270.65
262.139
270.65
462.778
270.65
270.65
746.671
528.652
682.282
623.304
756.032
401.755
545.976
270.65
241.167
270.73
256.184
270.65
554.343
286.074
591.526
383.335
716.936
270.648
270.65
428.101
510.556
307.875
270.65
270.74
580.132
270.151
689.852
270.65
266.897
270.65
358.93
270.65
886.517
771.408
270.647
314.7
422.565
345.384
297.688
270.65
256.745
270.655
270.65
325.194
270.65
332.312
372.552
372.171
270.651
270.65
408.031
270.649
270.651
270.604
270.65
270.65
404.553
566.434
270.65
270.638
250.122
320.376
270.651
662.637
270.65
270.638
398.701
392.839
270.65
270.152
270.71
719.739
270.026
270.65
289.207
270.65
708.764
270.65
268.874
270.65
441.622
404.351
270.651
545.785
390.295
791.54
671.503
293.13
272.747
270.646
737.896
270.65
270.656
270.65
406.894
360.182
441.682
713.265
270.65
664.589
518.97
270.65
425.475
359.354
270.51
270.65
473.321
538.453
628.633
270.699
286.138
270.489
508.453
270.65
776.394
532.787
270.65
275.393
267.526
513.31
270.65
362.547
562.121
270.65
441.963
541.384
742.121
256.467
270.65
448.1
513.586
319.963
438.665
370.982
270.65
667.585
659.005
270.95
270.65
607.288
440.871
270.65
270.722
417.616
511.644
457.471
466.055
612.682
446.826
274.218
270.65
628.381
684.419
270.65
270.643
270.65
740.922
298.016
270.65
748.158
579.164
270.658
270.65
270.65
507.339
270.644
578.102
270.65
270.65
408.07
286.361
404.662
396.588
351.831
270.8
256.155
408.221
289.882
530.417
713.841
329.758
442.139
751.748
257.679
293.551
270.65
270.648
749.012
430.095
288.656
651.329
474.882
486.853
270.649
270.65
687.831
270.65
270.646
681.661
270.787
270.65
798.205
382.662
270.654
270.657
680.513
678.5
270.643
567.762
270.65
736.121
728.534
814.808
270.65
552.126
270.65
414.269
270.65
270.65
270.65
270.65
270.639
694.972
270.65
270.646
292.225
270.658
389.012
387.294
288.164
270.651
317.312
374.086
475.663
702.915
268.735
264.946
397.575
298.582
476.926
270.65
718.527
541.626
270.65
331.045
325.744
560.599
358.524
246.185
270.65
396.658
685.111
328.219
425.011
479.722
247.257
270.646
336.307
373.49
483.471
814.75
569.955
270.642
413.905
708.439
474.749
270.65
733.319
270.65
589.523
270.597
259.43
270.65
443.146
770.969
270.65
597.219
374.927
687.732
270.65
741.873
258.733
509.671
270.525
637.358
270.65
270.65
270.65
621.273
404.678
270.65
404.874
676.451
270.742
252.251
443.938
287.663
270.645
270.65
248.574
270.65
655.008
760.484
438.844
280.189
498.345
291.361
754.806
383.84
270.65
646.418
673.232
473.874
428.687
270.648
451.773
448.199
362.64
461.574
613.236
270.665
533.098
503.913
289.336
338.509
265.759
748.225
403.367
443.538
270.825
735.791
733.906
270.65
573.541
270.65
505.592
270.65
270.65
632.441
316.9
747.279
270.65
408.48
573.716
774.182
269.729
243.152
270.414
410.082
270.695
522.874
245.914
270.65
764.814
424.001
270.65
270.65
495.55
270.649
270.649
521.793
270.7
270.651
270.65
270.65
270.651
621.116
253.975
270.65
258.249
269.963
336.19
270.65
693.905
270.723
287.752
270.65
354.617
388.803
270.65
270.65
270.65
270.65
773.823
270.65
325.735
755.325
270.65
265.867
390.282
602.516
357.7
751.692
270.656
372.29
633.484
681.677
834.919
270.65
474.023
399.729
270.65
367.159
676.965
702.207
270.731
736.068
550.341
270.657
644.756
270.636
593.484
270.8
696.165
430.622
869.005
270.65
607.112
270.652
270.65
625.913
770.474
270.627
367.536
412.735
705.365
703.76
599.969
270.65
574.944
270.761
689.233
544.777
270.65
477.45
649.812
525.888
582.859
680.562
557.938
486.644
551.475
298.225
325.075
270.65
711.241
404.573
327.397
270.65
667.955
372.659
383.357
270.65
657.906
711.549
327.248
326.993
318.579
299.292
653.155
270.648
573.182
270.677
270.65
526.821
270.649
686.324
408.49
270.65
270.65
595.933
398.55
301.141
369.166
655.742
316.361
437.334
561.127
467.49
405.474
362.111
270.65
270.506
270.557
388.296
270.65
758.966
716.282
270.65
291.445
270.65
406.301
627.318
346.779
272.605
270.65
270.65
744.944
688.624
691.621
270.65
539.239
270.649
703.973
379.229
270.65
521.576
746.915
439.812
342.216
270.608
371.115
396.768
561.894
270.65
494.989
460.777
344.133
270.646
556.085
270.65
270.65
300.474
478.789
689.287
595.399
555.927
270.65
568.681
613.197
615.219
270.65
266.733
433.303
390.414
270.65
575.524
374.641
270.65
270.957
419.002
746.5
270.646
270.65
314.145
658.862
270.65
270.65
270.65
400.122
713.354
383.462
606.724
270.651
551.45
270.649
726.018
440.995
475.265
270.65
602.223
477.929
270.65
244.827
255.679
767.851
270.125
754.551
443.341
503.603
580.163
686.862
689.227
270.65
275.484
270.91
335.562
709.951
734.345
415.586
285.708
754.543
414.848
660.425
384.288
416.627
268.713
891.674
270.65
442.976
396.938
462.333
270.648
363.036
580.682
263.561
691.256
270.728
270.65
597.864
684.366
270.648
658.04
270.651
270.867
491.221
356.91
417.458
408.139
538.468
270.736
257.628
270.65
270.65
695.993
270.65
270.65
373.766
422.162
430.917
566.536
757.753
270.685
270.685
712.192
383.223
270.65
399.654
486.861
270.654
316.663
465.36
448.781
618.282
483.307
360.304
456.491
720.055
269.713
327.668
270.65
551.464
270.65
418.881
435.6
718.017
278.773
344.813
551.684
671.51
647.653
270.65
292.911
414.801
475.613
438.074
276.283
526.692
386.466
399.123
449.014
481.899
270.651
689.204
855.601
301.384
399.576
282.389
270.65
270.649
636.332
512.981
270.635
547.535
753.888
561.179
270.65
270.655
253.512
563.325
565.224
270.649
401.673
340.174
270.651
443.853
469.792
627.239
270.643
327.669
268.585
270.65
270.65
373.695
270.648
346.671
437.889
270.65
246.184
586.132
596.072
641.85
281.888
270.662
270.65
270.243
562.078
710.205
507.39
381.851
746.427
285.21
270.65
721.033
605.549
289.08
270.65
790.78
314.385
606.483
270.65
599.354
270.674
624.143
683.219
498.468
407.629
502.886
645.282
270.65
307.129
351.898
270.65
270.65
270.65
270.654
270.65
270.65
387.361
514.486
270.648
566.647
398.541
270.65
769.118
669.397
664.218
464.489
270.65
270.51
777.072
332.709
588.861
270.649
294.359
264.844
622.697
433.432
270.65
270.65
271.062
270.648
404.823
272.172
593.636
685.099
248.918
270.524
270.65
421.479
270.65
270.65
270.641
562.504
544.688
270.648
555.958
632.712
594.895
396.897
283.762
270.65
461.604
435.805
270.65
574.671
270.649
388.982
410.363
360.341
270.65
556.243
270.65
601.283
270.648
317.42
609.32
528.025
541.206
269.432
761.006
479.533
413.385
571.109
412.357
270.65
377.976
600.128
675.889
322.377
698.67
270.65
267.167
259.762
401.901
295.899
410.144
361.909
270.673
703.28
751.562
270.65
672.491
428.893
384.858
469.865
728.955
272.094
270.65
270.717
292.029
747.104
270.65
270.65
509.281
622.084
383.279
414.598
464.84
720.489
270.581
272.59
447.843
737.705
452.308
671.583
454.254
324.566
270.633
738.031
392.383
312.39
270.65
270.65
695.774
335.171
270.649
276.413
671.219
270.65
749.482
719.53
270.651
359.158
270.65
428.189
270.65
584.757
287.152
651.782
708.257
270.652
557.881
601.992
513.65
364.79
559.248
558.775
612.407
319.984
315.873
281.188
400.266
270.649
270.651
270.646
270.65
578.084
478.77
538.485
270.65
554.483
270.653
270.651
571.947
739.904
606.662
580.376
582.194
251.968
630.636
391.359
269.126
270.65
270.65
459.396
270.65
270.65
487.211
270.355
495.556
270.417
270.65
418.998
270.65
582.374
380.132
520.271
712.296
327.161
270.65
354.165
299.782
360.2
646.404
270.684
565.63
606.146
378.393
598.581
305.456
303.163
270.665
376.478
593.311
638.649
289.74
424.83
340.31
407.64
384.165
471.693
305.302
713.187
662.236
270.65
270.65
270.65
258.292
477.018
270.65
270.654
270.14
371.316
270.65
270.724
665.056
523.632
271.804
700.623
284.64
370.398
328.834
456.093
572.575
546.998
270.65
446.971
617.673
411.061
270.626
270.65
484.213
364.798
425.05
465.583
535.08
270.65
467.717
270.65
467.789
270.649
270.65
322.308
681.066
588.583
775.174
289.189
270.643
448.35
366.838
572.778
301.66
270.65
270.628
490.514
270.65
628.523
607.886
270.46
594.471
628.242
289.451
298.088
311.158
269.449
390.753
270.65
352.53
270.65
270.651
270.649
270.65
270.668
270.65
681.065
272.774
270.65
472.065
270.65
270.65
270.44
270.65
472.858
411.781
276.361
509.446
521.149
496.315
270.643
611.741
270.651
308.792
270.535
270.65
500.22
505.223
270.473
609.146
556.98
575.014
650.369
452.541
270.638
637.109
444.977
482.878
270.779
659.266
314.363
402.603
440.917
270.65
524.161
271.105
593.368
270.65
709.521
270.65
283.392
270.65
270.632
270.65
419.419
397.143
526.536
741.765
270.646
685.334
483.184
270.67
270.657
307.533
582.434
363.499
270.65
270.649
372.518
506.296
270.65
461.702
590.687
391.487
270.643
270.65
417.819
589.968
379.859
643.345
534.192
271.075
662.931
703.725
766.679
270.65
305.03
311.003
292.962
270.647
564.914
685.28
270.657
638.252
487.306
738.548
270.663
443.111
531.623
404.952
270.65
609.054
677.659
756.095
445.928
406.438
270.65
301.957
270.65
468.309
499.278
301.318
688.458
270.66
335.036
289.747
747.225
338.457
270.651
279.809
434.013
661.914
550.649
689.073
694.769
342.462
485.746
269.915
270.645
509.515
450.511
383.573
688.694
270.652
269.881
270.65
661.089
508.909
270.659
269.903
270.65
423.556
340.166
330.474
498.874
270.636
391.785
270.588
425.492
509.581
319.094
656.442
430.679
270.648
442.369
426.168
363.21
270.647
271.007
640.704
270.65
545.794
323.485
546.692
583.662
725.775
422.8
584.043
402.727
324.144
489.319
347.476
270.65
272.133
343.947
414.625
560.466
435.316
391.324
600.153
270.65
270.65
420.786
317.923
251.121
317.714
270.648
465.829
380.35
534.036
730.327
611.464
608.081
460.586
563.747
277.508
270.65
476.424
650.683
574.095
655.102
442.546
338.09
270.65
466.041
270.65
555.396
650.373
270.633
418.215
682.637
270.65
254.064
271.086
416.476
539.961
577.036
584.685
270.62
541.376
785.097
752.744
270.65
334.928
270.649
572.337
349.94
270.65
652.043
713.307
741.824
500.617
580.954
646.175
677.624
589.424
554.738
270.65
416.154
755.391
349.23
357.17
248.001
270.65
270.65
564.836
270.646
440.722
416.365
270.65
270.65
564.062
557.134
277.371
489.945
270.649
539.473
270.65
270.65
359.274
287.114
270.65
410.668
387.121
563.182
726.484
494.959
653.963
489.124
469.564
478.411
450.864
728.924
270.639
442.758
480.696
553.878
270.658
380.638
270.638
348.508
456.729
408.061
364.635
490.481
648.183
447.341
346.702
357.539
867.706
394.91
593.05
511.584
317.068
270.65
501.613
448.046
265.981
437.164
396.452
270.65
270.655
423.753
270.663
469.451
757.427
602.852
270.65
619.271
270.653
456.259
591.882
270.629
379.994
409.714
270.66
487.825
765.955
308.338
497.884
526.095
477.398
692.973
270.565
270.65
270.65
589.954
393.081
270.65
270.65
427.32
641.112
493.58
511.232
588.512
332.558
270.649
454.556
369.776
361.474
387.577
498.128
341.965
270.653
270.65
669.361
449.053
511.362
270.651
750.344
447.39
270.65
401.688
270.65
536.925
400.614
270.701
534.584
495.934
497.156
428.763
506.273
501.277
404.105
245.576
497.904
415.751
424.019
273.771
259.648
270.636
394.862
421.021
270.65
349.59
447.38
508.342
460.986
270.65
560.823
647.405
388.794
622.492
468.126
395.705
310.787
270.65
430.678
586.804
642.127
427.279
415.514
651.387
545.382
321.006
413.04
690.388
517.183
382.524
260.884
593.047
535.889
454.275
270.636
428.807
649.211
792.773
304.291
533.827
441.84
270.65
624.792
507.737
270.812
270.797
725.313
270.649
431.63
633.143
270.621
270.653
454.711
270.6