/*--------------------------------*- C++ -*----------------------------------*\
| =========                 |                                                 |
| \\      /  F ield         | OpenFOAM: The Open Source CFD Toolbox           |
|  \\    /   O peration     | Version:  2406                                  |
|   \\  /    A nd           | Website:  www.openfoam.com                      |
|    \\/     M anipulation  |                                                 |
\*---------------------------------------------------------------------------*/
FoamFile
{
    version     2.0;
    format      ascii;
    arch        "LSB;label=32;scalar=64";
    class       volVectorField;
    location    "0.0008000341512";
    object      U;
}
// * * * * * * * * * * * * * * * * * * * * * * * * * * * * * * * * * * * * * //

dimensions      [0 1 -1 0 0 0 0];

internalField   nonuniform List<vector> 
17141
(
(990 -2.2165e-06 0)
(990 -5.26055e-05 0)
(990 -6.00548e-05 0)
(1066.58 45.4349 0)
(990 6.6538e-07 0)
(879.966 -147.145 0)
(768.349 -261.825 0)
(805.67 136.094 0)
(997.039 -1.62144 0)
(988.295 -0.216753 0)
(990 5.87707e-12 0)
(990 -2.08221e-06 0)
(389.892 -302.782 0)
(990 5.86854e-06 0)
(1028.96 -111.956 0)
(989.802 -0.348783 0)
(990 -5.03413e-08 0)
(538.286 350.065 0)
(372.277 -283.403 0)
(947.717 0.339623 0)
(943.622 114.637 0)
(990 -8.50987e-09 0)
(951.291 178.343 0)
(1043.25 303.956 0)
(990 -3.81939e-05 0)
(990 2.438e-11 0)
(989.845 0.0452677 0)
(990 -4.81826e-08 0)
(831.537 -219.879 0)
(954.303 91.6176 0)
(1062.97 11.7677 0)
(990 1.8639e-06 0)
(989.998 0.00796208 0)
(890.844 -82.8158 0)
(721.153 223.365 0)
(976.721 59.5351 0)
(990 4.09233e-05 0)
(991.757 71.4589 0)
(990 2.23477e-12 0)
(991.362 -3.5677 0)
(1020.96 191.965 0)
(995.141 62.585 0)
(989.823 0.478076 0)
(66.3605 -54.058 0)
(846.409 202.194 0)
(990.031 0.234334 0)
(724.931 310.253 0)
(980.897 77.4302 0)
(990 -0.000315635 0)
(989.997 -0.00904739 0)
(990 -0.00697973 0)
(990 -1.18034e-06 0)
(964.557 165.247 0)
(264.421 160.189 0)
(990.001 0.0032534 0)
(866.392 -255.8 0)
(1004.63 11.9283 0)
(990.544 -1.28396 0)
(731.375 305.178 0)
(403.318 -307.484 0)
(929.566 517.528 0)
(989.995 -0.0193251 0)
(888.592 -20.4645 0)
(990 2.66913e-07 0)
(244.077 130.29 0)
(989.748 0.638833 0)
(989.974 0.0597623 0)
(986.543 -0.945671 0)
(770.409 316.424 0)
(990.005 0.00420431 0)
(1039.24 388.555 0)
(279.122 -247.965 0)
(992.392 -5.28345 0)
(990 -0.000204341 0)
(990 6.447e-12 0)
(990 1.86395e-05 0)
(990 1.79039e-11 0)
(1006.18 144.173 0)
(307.051 250.063 0)
(990 -5.63964e-05 0)
(990 9.25007e-07 0)
(233.795 55.3793 0)
(839.615 -234.817 0)
(990 1.21386e-07 0)
(990.659 0.428643 0)
(392.997 -305.863 0)
(990 4.36497e-05 0)
(960.905 113.785 0)
(990 -0.00149899 0)
(990 1.05358e-11 0)
(990 -8.53836e-10 0)
(852.512 109.328 0)
(1016.41 -311.754 0)
(1043.39 -203.003 0)
(989.793 0.750709 0)
(990 0.000227609 0)
(989.757 0.417928 0)
(990.033 -0.0400133 0)
(951.269 177.726 0)
(989.936 -0.0753664 0)
(990 -3.44883e-06 0)
(984.329 4.51701 0)
(990 1.66546e-11 0)
(990 -6.24812e-09 0)
(990 -0.000468956 0)
(76.9818 -80.7195 0)
(990 -0.000730906 0)
(643.814 316.247 0)
(990 -2.61251e-12 0)
(990 3.0705e-12 0)
(824.581 -131.634 0)
(861.797 -261.427 0)
(400.852 -314.537 0)
(991.003 -1.47965 0)
(989.963 0.0814207 0)
(1027.61 227.187 0)
(990.006 0.21042 0)
(989.995 0.0757076 0)
(987.182 1.2982 0)
(384.451 -267.245 0)
(1027.67 19.9729 0)
(990 4.33791e-08 0)
(989.949 0.14778 0)
(989.982 -0.0367571 0)
(858.303 -273.954 0)
(929.045 -209.633 0)
(415.294 -266.912 0)
(1051.12 -180.143 0)
(990 2.20732e-07 0)
(989.999 -0.0137404 0)
(999.328 2.73374 0)
(990 -2.10393e-09 0)
(1009.47 -179.607 0)
(990 1.46389e-12 0)
(609.784 9.76332 0)
(866.187 521.24 0)
(786.155 158.326 0)
(319.39 -252.125 0)
(989.846 0.515508 0)
(763.872 173.278 0)
(963.012 164.622 0)
(989.997 -0.0038769 0)
(990 2.58091e-05 0)
(289.277 187.201 0)
(290.287 -300.499 0)
(990 9.50502e-05 0)
(170.914 255.175 0)
(989.988 -0.0441651 0)
(837.679 -210.513 0)
(990 -5.91659e-12 0)
(1046.32 -217.481 0)
(858.321 -275.28 0)
(286.25 -245.948 0)
(1051.65 326.081 0)
(989.876 -0.0490955 0)
(990 1.18042e-05 0)
(990 -6.64477e-05 0)
(1050.99 -185.759 0)
(990 1.01278e-05 0)
(990 2.3272e-05 0)
(990 1.54494e-06 0)
(997.804 -17.9266 0)
(991.096 2.42904 0)
(982.699 -139.26 0)
(555.906 -330.23 0)
(990 -7.18966e-05 0)
(722.018 223.736 0)
(929.973 187.097 0)
(990 1.86087e-11 0)
(990 -4.18037e-05 0)
(990 0.000194051 0)
(990 -3.32303e-07 0)
(990.491 -1.91646 0)
(990 -3.31181e-05 0)
(194.759 282.263 0)
(1061.17 346.306 0)
(977.363 170.422 0)
(408.95 -310.358 0)
(990.006 -0.00442804 0)
(1011.69 -345.799 0)
(990 -0.000119208 0)
(989.998 0.00718106 0)
(993.342 -4.93734 0)
(990 5.52291e-05 0)
(411.879 -310.511 0)
(885.593 83.2221 0)
(990 9.90496e-07 0)
(990.001 -0.00330605 0)
(965.731 16.3683 0)
(897.943 242.487 0)
(990 0.000104257 0)
(989.064 -1.08259 0)
(990.008 0.0308986 0)
(989.999 -0.000850175 0)
(302.155 -305.638 0)
(273.948 -187.808 0)
(491.458 -310.474 0)
(1009.17 -84.9538 0)
(303.575 163.005 0)
(598.368 13.71 0)
(322.397 -199.922 0)
(963.66 12.8684 0)
(639.698 331.588 0)
(934.417 181.492 0)
(1110.45 -57.2887 0)
(903.962 60.7413 0)
(878.079 97.4116 0)
(990 0.000656136 0)
(286.169 136.267 0)
(990.001 0.00163264 0)
(1052.77 376.775 0)
(989.924 -0.150448 0)
(989.945 -0.252714 0)
(244.569 120.672 0)
(753.353 187.796 0)
(681.607 -314.397 0)
(1063.15 346.757 0)
(990.022 -0.00673378 0)
(990.002 -0.0016448 0)
(1023.3 213.994 0)
(990 -1.48744e-07 0)
(990 1.23479e-06 0)
(990 1.40131e-06 0)
(989.87 1.30199 0)
(896.49 -231.704 0)
(990.266 -1.11878 0)
(778.569 -73.7876 0)
(990 1.41262e-05 0)
(989.998 -0.00593515 0)
(989.991 -0.041092 0)
(602.332 -300.125 0)
(1002.03 -12.4887 0)
(738.103 173.876 0)
(1014.9 -326.59 0)
(990 -0.000139243 0)
(1017.74 180.298 0)
(991.513 1.14903 0)
(976.834 53.8288 0)
(990.003 0.00044887 0)
(769.464 -43.995 0)
(1038.69 95.6503 0)
(443.204 332.959 0)
(183.489 282.945 0)
(596.28 336.589 0)
(989.995 -0.0170313 0)
(990.547 0.0378564 0)
(254.792 -130.802 0)
(313.758 122.392 0)
(968.427 52.4464 0)
(990 1.5479e-05 0)
(990.001 0.0112089 0)
(518.682 -293.218 0)
(815.412 -126.297 0)
(806.6 -214.633 0)
(996.11 8.89227 0)
(296.149 -70.623 0)
(840.057 283.622 0)
(990 -1.46724e-11 0)
(990.965 -1.8954 0)
(990 3.70729e-08 0)
(990 2.96617e-06 0)
(267.182 -177.941 0)
(990 -0.000355887 0)
(995.115 57.5505 0)
(226.118 -280.572 0)
(990.036 -0.357607 0)
(992.437 1.88115 0)
(899.487 26.654 0)
(305.934 253.462 0)
(246.891 302.395 0)
(990 -2.46328e-06 0)
(990.047 -0.0113458 0)
(989.442 0.480222 0)
(990 5.97087e-12 0)
(990 -5.1086e-06 0)
(989.807 0.0413756 0)
(-91.8501 10.4763 0)
(891.645 86.6251 0)
(1030.62 -180.779 0)
(492.401 310.646 0)
(644.376 -265.117 0)
(632.754 -277.737 0)
(989.989 -0.00850031 0)
(1022.86 -41.2724 0)
(984.479 196.407 0)
(1100.3 -8.84188 0)
(990 -0.00176342 0)
(990 6.32602e-06 0)
(132.17 203.965 0)
(989.941 0.141616 0)
(614.098 -361.488 0)
(990 -0.000125588 0)
(979.507 -143.982 0)
(147.198 60.9446 0)
(998.307 46.3516 0)
(768.342 -325.76 0)
(1039.96 395.203 0)
(1028.85 19.3834 0)
(701.99 318.463 0)
(969.214 -4.66596 0)
(990 5.47741e-12 0)
(997.331 10.8476 0)
(557.467 319.106 0)
(989.994 0.0190562 0)
(990 -1.5491e-07 0)
(434.333 319.702 0)
(989.886 0.111574 0)
(951.805 -4.43479 0)
(990 -0.000807432 0)
(990 -5.82363e-09 0)
(860.468 139.351 0)
(990.018 0.432816 0)
(982.214 -1.23541 0)
(1000.62 -441.34 0)
(1010.82 -43.1194 0)
(683.752 -254.921 0)
(990.004 -0.00214873 0)
(1011.79 -36.0187 0)
(539.188 341.75 0)
(521.302 306.946 0)
(1022.26 432.422 0)
(666.529 -307.235 0)
(237.43 101.74 0)
(1049.17 -184.128 0)
(1003.99 -19.341 0)
(494.434 290.82 0)
(895.828 -233.388 0)
(971.65 -5.12936 0)
(996.819 471.314 0)
(990 -9.41743e-12 0)
(236.053 -289.305 0)
(990 -9.38201e-07 0)
(734.214 216.937 0)
(508.046 328.156 0)
(990 1.48892e-06 0)
(990.001 -0.0028894 0)
(990.001 -0.000708402 0)
(1048.96 -190.793 0)
(213.196 -35.4702 0)
(1063.7 -402.676 0)
(847.83 281.123 0)
(992.767 -1.6261 0)
(219.747 -273.155 0)
(990 -8.74809e-06 0)
(990 -2.32692e-07 0)
(993.355 -4.93497 0)
(841.32 206.162 0)
(990 2.17049e-11 0)
(212.576 195.928 0)
(990 -1.44994e-06 0)
(990 3.46378e-07 0)
(999.061 471.077 0)
(851.502 -275.571 0)
(516.024 335.295 0)
(208.057 -26.3764 0)
(990.377 -3.85747 0)
(990.024 -0.0357505 0)
(990.001 -0.000229806 0)
(990 -5.57786e-08 0)
(645.326 -265.28 0)
(990 3.31158e-06 0)
(990 -1.88415e-05 0)
(990 8.9875e-05 0)
(990.001 0.00372624 0)
(959.824 61.3457 0)
(990 8.7166e-05 0)
(990 0.000486042 0)
(980.307 2.26311 0)
(927.515 -208.52 0)
(667.865 -253.159 0)
(990 -6.75745e-05 0)
(990 -9.901e-12 0)
(420.115 -307.028 0)
(735.087 217.218 0)
(627.735 -274.464 0)
(1048.89 -222.305 0)
(825.934 299.271 0)
(423.533 -313.502 0)
(895.398 -371.759 0)
(795.234 -148.583 0)
(990 -3.03142e-05 0)
(447.914 314.119 0)
(990 -4.0303e-06 0)
(886.087 -228.338 0)
(990.007 -0.00657376 0)
(929.429 12.392 0)
(990.011 0.00963588 0)
(990.11 0.225255 0)
(990 1.89583e-07 0)
(825.859 300.364 0)
(989.688 78.8749 0)
(563.454 313.56 0)
(890.999 -17.3313 0)
(989.992 -0.0323619 0)
(990 -2.11391e-12 0)
(1025.02 343.283 0)
(981.345 -0.428474 0)
(364.44 -287.344 0)
(523.269 21.5078 0)
(990 1.28457e-08 0)
(990 1.60984e-07 0)
(883.807 231.581 0)
(1050.92 -160.207 0)
(668.864 343.201 0)
(1014.19 132.508 0)
(990 -7.71077e-13 0)
(687.533 -387.455 0)
(990 -2.42243e-05 0)
(990 2.24443e-12 0)
(990 2.82163e-06 0)
(989.517 0.826876 0)
(991.02 1.8891 0)
(545.354 295.87 0)
(990.067 0.0787243 0)
(957.973 -108.263 0)
(990.967 -4.1236 0)
(970.24 141.215 0)
(667.614 -253.334 0)
(990 -0.00422526 0)
(528.457 336.431 0)
(282.811 298.627 0)
(990 3.60832e-05 0)
(990 -4.79522e-05 0)
(932.322 -73.5653 0)
(990 5.95557e-06 0)
(1020.32 -26.9576 0)
(990 -1.69079e-08 0)
(990 7.06866e-12 0)
(374.908 -293.439 0)
(989.669 -0.466322 0)
(988.47 3.1117 0)
(989.703 -0.316003 0)
(990 0.000136145 0)
(990 -0.000134596 0)
(1013.67 13.9102 0)
(990 -9.33178e-08 0)
(990 -0.00139443 0)
(967.756 3.28396 0)
(1050.98 399.281 0)
(990.194 -0.101547 0)
(990 1.46586e-09 0)
(990 -2.90215e-05 0)
(990 0.000144339 0)
(990 -1.30357e-05 0)
(989.993 -0.013327 0)
(779.042 167.285 0)
(990 -0.000534693 0)
(986.397 -2.27406 0)
(989.787 -2.4761 0)
(911.986 54.5665 0)
(989.976 0.00670477 0)
(989.948 0.0857412 0)
(812.153 288.925 0)
(555.671 207.075 0)
(828.621 -127.749 0)
(745.579 332.425 0)
(990 -4.26758e-05 0)
(990.004 0.0197223 0)
(990 -0.000114916 0)
(1063.59 315.805 0)
(933.003 -43.3019 0)
(964.009 -9.18223 0)
(990.001 -0.00336035 0)
(929.62 9.10295 0)
(1022.58 435.454 0)
(136.844 -222.506 0)
(990 -1.02573e-05 0)
(990 -5.43533e-08 0)
(785.203 267.328 0)
(990 -0.000112481 0)
(377.127 -286.416 0)
(867.806 -248.972 0)
(1008.7 -55.849 0)
(1025.59 406.56 0)
(351.646 266.848 0)
(990 7.37258e-11 0)
(990 -1.02798e-07 0)
(352.025 -90.6676 0)
(984.378 1.94114 0)
(963.109 8.52267 0)
(888.26 226.692 0)
(990 -0.00104729 0)
(493.587 328.129 0)
(990 -8.30582e-12 0)
(940.85 46.4286 0)
(308.473 -255.355 0)
(973.648 71.6178 0)
(990 -1.37436e-06 0)
(990 7.09135e-06 0)
(898.366 -304.697 0)
(990 -2.11661e-06 0)
(1072.26 321.09 0)
(1026.29 435.178 0)
(990 -1.29491e-07 0)
(856.291 285.679 0)
(967.255 118.577 0)
(990 -1.26945e-11 0)
(619.294 -277.102 0)
(565.935 -290.946 0)
(564.064 288.117 0)
(970.683 -5.9631 0)
(989.949 0.108305 0)
(990.001 0.000267869 0)
(246.309 292.053 0)
(990 -8.97813e-05 0)
(873.292 -241.751 0)
(989.998 0.00111467 0)
(990 -3.30938e-12 0)
(412.659 -325.102 0)
(619.143 309.251 0)
(990.041 -0.512116 0)
(993.111 11.2226 0)
(969.853 -179.86 0)
(799.571 229.19 0)
(990 -0.000152388 0)
(990.131 -0.0194147 0)
(215.821 207.435 0)
(1016.43 140.878 0)
(890.818 -217.253 0)
(990 -1.35263e-06 0)
(1018.55 167.392 0)
(990.001 0.00226439 0)
(990 1.98118e-09 0)
(989.997 -0.000488107 0)
(990 -0.00239752 0)
(990 -1.02924e-06 0)
(1010.06 -50.4156 0)
(990 -2.85886e-05 0)
(989.999 0.0028588 0)
(990 -0.000347875 0)
(536.479 300.064 0)
(616.067 318.342 0)
(990 -6.46644e-07 0)
(990 -0.00168786 0)
(989.962 -0.0708404 0)
(990 1.8669e-11 0)
(1027.5 22.6694 0)
(545.41 -306.204 0)
(990 -1.05494e-11 0)
(1051.43 -237.446 0)
(816.955 237.911 0)
(990.118 -0.00474098 0)
(989.999 0.000137632 0)
(989.644 -0.0161692 0)
(926.949 198.705 0)
(990 -5.94766e-05 0)
(633.44 -331.195 0)
(970.972 0.865351 0)
(990 -3.51745e-12 0)
(816.029 118.464 0)
(990 1.38826e-05 0)
(1080.38 32.5272 0)
(528.615 -348.287 0)
(990 -0.000114808 0)
(990 1.76158e-11 0)
(629.942 303.362 0)
(241.081 -53.4713 0)
(895.64 -173.353 0)
(1008.96 -29.97 0)
(996.077 8.01066 0)
(516.018 8.40227 0)
(1067.99 -375.648 0)
(990 -1.36847e-05 0)
(811.509 -149.11 0)
(822.647 151.876 0)
(990 -1.24473e-05 0)
(990 2.32712e-11 0)
(782.353 393.91 0)
(463.078 -321.282 0)
(990 -2.51063e-06 0)
(990 0.00142367 0)
(233.735 -292.22 0)
(719.509 322.019 0)
(1050.75 165.472 0)
(1009.96 -23.2914 0)
(990.567 1.20991 0)
(989.999 -0.00125088 0)
(658.774 335.847 0)
(80.9814 8.67516 0)
(1049.41 -211.357 0)
(1001.36 14.7712 0)
(303.663 212.281 0)
(990.075 0.0723146 0)
(964.074 2.75116 0)
(976.54 -451.575 0)
(990.009 0.000218027 0)
(294.526 -306.797 0)
(990 7.36933e-05 0)
(741.052 196.841 0)
(990 -1.29332e-11 0)
(827.533 -306.299 0)
(989.965 0.0573284 0)
(163.292 -122.948 0)
(572.189 -291.287 0)
(526.476 334.432 0)
(154.534 237.135 0)
(924.891 -25.0225 0)
(820.438 230.105 0)
(990 0.000225128 0)
(768.335 174.48 0)
(556.01 264.839 0)
(990.001 0.000677947 0)
(990 -2.73837e-09 0)
(990 -4.74839e-12 0)
(271.693 -176.982 0)
(990 -2.437e-10 0)
(990 -6.17386e-07 0)
(990 -6.28593e-07 0)
(701.113 121.621 0)
(227.978 -273.225 0)
(981.856 -15.6875 0)
(991.315 2.10911 0)
(588.979 -318.744 0)
(990 1.42929e-08 0)
(890.628 -160.24 0)
(939.514 0.640787 0)
(990 -1.99175e-05 0)
(989.913 -0.0350685 0)
(1060 262.94 0)
(692.713 341.173 0)
(1033.82 -32.892 0)
(690.506 -238.415 0)
(1051.69 177.128 0)
(990 -1.16682e-12 0)
(779.298 -134.713 0)
(951.663 -70.1169 0)
(558.315 195.095 0)
(981.38 0.283181 0)
(994.469 -5.54873 0)
(599.449 -300.339 0)
(1031.9 290.217 0)
(380.62 -297.698 0)
(990 2.4874e-11 0)
(874.689 -259.211 0)
(990 1.06414e-11 0)
(701.442 -210.918 0)
(990 2.72828e-11 0)
(990 -0.000100894 0)
(990 8.91837e-12 0)
(990.641 2.10611 0)
(997.324 5.82511 0)
(990 6.56306e-13 0)
(990 7.92256e-06 0)
(990.17 -0.00957578 0)
(990 -0.000165302 0)
(990 8.58341e-07 0)
(989.987 -0.00166012 0)
(308.387 -244.48 0)
(990.001 -0.00226916 0)
(234.897 -60.0194 0)
(990 -1.12064e-11 0)
(990.001 -0.000211108 0)
(990 -2.2952e-05 0)
(562.077 317.582 0)
(990.076 -0.259649 0)
(828.044 -191.288 0)
(651.698 -291.197 0)
(990 -9.13855e-11 0)
(452.153 -321.683 0)
(990 -5.10732e-09 0)
(691.639 -237.525 0)
(990 -3.30758e-06 0)
(129.68 217.113 0)
(991.101 -7.397 0)
(990 7.8845e-08 0)
(626.216 -274.376 0)
(990 -0.000202342 0)
(926.661 195.18 0)
(685.678 -317.768 0)
(433.12 -313.515 0)
(827.277 27.8253 0)
(991.183 -4.74454 0)
(882.948 -230.362 0)
(209.987 -73.2825 0)
(990.028 -0.0245258 0)
(846.131 317.985 0)
(991.288 386.508 0)
(989.995 0.0258904 0)
(1000.01 -11.0524 0)
(922.529 207.468 0)
(989.999 -0.00132131 0)
(990 1.57058e-06 0)
(219.211 -11.2988 0)
(990 0.000492587 0)
(902.233 234.178 0)
(990.205 -0.0873992 0)
(990 -5.11119e-06 0)
(738.021 195.82 0)
(990.002 0.00482553 0)
(990 9.40874e-05 0)
(-61.9355 18.8093 0)
(562.089 292.034 0)
(990 -7.11988e-07 0)
(977.964 39.5443 0)
(858.888 -265.731 0)
(990 -1.0388e-10 0)
(877.853 -227.021 0)
(927.758 163.063 0)
(990 1.96111e-07 0)
(1019.86 250.146 0)
(989.999 -0.00302012 0)
(1046.15 -187.047 0)
(990 -4.39045e-05 0)
(154.906 -115.053 0)
(1012.16 -42.8297 0)
(990 -1.04048e-07 0)
(990 2.03601e-07 0)
(1009.52 -50.1757 0)
(990 -5.43655e-07 0)
(303.358 -228.273 0)
(1031.94 190.585 0)
(990 -9.10118e-11 0)
(1060.28 -353.034 0)
(990.214 0.292171 0)
(515.652 305.788 0)
(922.469 -155.188 0)
(989.878 -0.230602 0)
(990 -4.55361e-13 0)
(990 9.14215e-07 0)
(426.712 -321.789 0)
(1029.15 277.386 0)
(990 -1.03114e-11 0)
(990 0.00237458 0)
(1064.69 315.189 0)
(791.572 484.012 0)
(990 -0.0164922 0)
(991.553 0.243792 0)
(902.388 19.6836 0)
(1046.29 -197.727 0)
(1045.38 -124.498 0)
(884.659 -129.865 0)
(990 -0.0142638 0)
(987.737 -0.828846 0)
(909.755 217.328 0)
(990.736 0.155135 0)
(989.999 0.00167116 0)
(286.916 -280.001 0)
(990.135 -0.203392 0)
(754.991 -160.608 0)
(453.643 -312.925 0)
(989.992 0.0269453 0)
(897.001 -157.588 0)
(1004.57 11.2521 0)
(493.273 327.373 0)
(287.493 -161.441 0)
(879.889 -141.186 0)
(989.956 -0.0275522 0)
(626.533 338.886 0)
(441.712 316.681 0)
(1047.42 19.2079 0)
(117.109 -70.4533 0)
(902.912 63.5552 0)
(990 -1.21503e-07 0)
(538.587 -199.599 0)
(990 -2.91991e-05 0)
(394.023 -305.111 0)
(706.276 -218.529 0)
(360.208 -117.17 0)
(990 1.66415e-05 0)
(939.264 59.9193 0)
(990.623 0.070225 0)
(986.371 -129.222 0)
(990.011 -0.00275533 0)
(990.883 2.49519 0)
(198.806 -191.826 0)
(990.048 -0.0145835 0)
(990 5.18041e-08 0)
(990 -3.5896e-12 0)
(990 3.49389e-05 0)
(693.923 -247.569 0)
(990 2.78023e-07 0)
(1048.94 -148.745 0)
(977.949 -25.7412 0)
(990.08 0.168663 0)
(990 0.000145673 0)
(1019.88 -160.932 0)
(990 -8.2662e-08 0)
(991.668 -2.08874 0)
(545.253 152.302 0)
(990 -0.00109865 0)
(937.602 173.276 0)
(772.037 171.72 0)
(990.004 0.00510597 0)
(280.542 304.35 0)
(990 3.50512e-08 0)
(674.668 -337.934 0)
(1070.53 -361.845 0)
(990 -0.000118175 0)
(986.216 -1.82936 0)
(990 7.90093e-06 0)
(989.999 -0.0104264 0)
(1011.98 165.737 0)
(599.438 -280.857 0)
(929.007 212.183 0)
(990 -1.28474e-11 0)
(916.03 -141.263 0)
(989.998 -0.00831906 0)
(990 -2.2859e-07 0)
(990 4.13282e-12 0)
(989.044 -0.84274 0)
(581.005 337.28 0)
(85.2445 -12.6489 0)
(990 1.68743e-08 0)
(576.31 339.127 0)
(985.945 -63.4971 0)
(632.706 -264.63 0)
(990.005 -0.000484611 0)
(990 -1.35785e-06 0)
(993.196 133.133 0)
(991.07 1.14748 0)
(936.118 25.9231 0)
(981.32 -104.712 0)
(989.996 0.00236241 0)
(1033.59 287.677 0)
(689.039 -326.838 0)
(140.515 -103.025 0)
(971.26 -1.97457 0)
(986.844 -69.9087 0)
(990 -4.35406e-07 0)
(988.336 -165.146 0)
(990 -8.46915e-12 0)
(499.305 -312.846 0)
(983.124 18.1794 0)
(990 -0.0134926 0)
(990 3.80032e-06 0)
(840.581 127.58 0)
(995.302 -9.1252 0)
(827.78 -240.841 0)
(640.71 322.839 0)
(990 8.22132e-05 0)
(992.988 5.58659 0)
(1037.51 426.935 0)
(939.163 -100.272 0)
(990.01 -0.00821789 0)
(643.285 -258.084 0)
(939.872 161.877 0)
(990.001 -0.00578551 0)
(591.13 -311.481 0)
(788.676 -129.185 0)
(990 -4.70648e-07 0)
(1060.43 351.522 0)
(990 -5.93238e-08 0)
(990 -7.05611e-12 0)
(838.545 50.8717 0)
(1064.5 328.022 0)
(990 -2.53886e-05 0)
(980.052 -27.0771 0)
(990 1.28992e-12 0)
(905.966 233.308 0)
(453.992 -314.872 0)
(990 0.00020414 0)
(910.176 228.427 0)
(990 -7.37388e-07 0)
(936.351 170.567 0)
(989.997 0.00952982 0)
(990 9.43023e-10 0)
(-15.2825 -44.5583 0)
(337.29 278.493 0)
(1008.84 -78.223 0)
(311.403 -254.405 0)
(989.96 0.044464 0)
(943.538 49.1019 0)
(984.241 1.96025 0)
(764.798 -337.408 0)
(990 2.60908e-06 0)
(929.183 103.005 0)
(970.306 -9.64882 0)
(849.986 193.985 0)
(940.296 -104.266 0)
(990 -0.000174851 0)
(640.784 -315.17 0)
(988.704 231.374 0)
(853.152 221.738 0)
(832.592 134.956 0)
(767.071 156.032 0)
(720.811 317.407 0)
(1008.79 -371.98 0)
(990.11 0.0214544 0)
(989.987 0.425215 0)
(1000.58 -10.2363 0)
(990 -2.09776e-05 0)
(989.863 -0.316698 0)
(707.43 -48.7055 0)
(990 -8.65146e-05 0)
(633.292 -326.379 0)
(893.963 -173.745 0)
(1011.59 -30.1441 0)
(427.126 296.102 0)
(935.263 -105.534 0)
(851.013 205.031 0)
(990 8.52005e-05 0)
(990 -3.32533e-06 0)
(1051.06 -247.533 0)
(990 -0.000907344 0)
(156.042 38.9255 0)
(657.094 368.351 0)
(426.388 -326.243 0)
(928.811 494.378 0)
(990 2.66796e-05 0)
(538.62 305.401 0)
(1003.24 0.138465 0)
(816.837 130.248 0)
(632.332 -313.674 0)
(705.543 118.472 0)
(990.095 0.0446018 0)
(989.493 0.276608 0)
(908.076 66.9864 0)
(542.413 306.747 0)
(270.269 304.146 0)
(548.8 321.524 0)
(990 2.99953e-11 0)
(990 -1.36353e-08 0)
(990 1.12542e-11 0)
(860.654 152.911 0)
(436.909 316.347 0)
(129.794 -212.087 0)
(990 -8.24222e-10 0)
(988.749 0.4414 0)
(840.776 -200.288 0)
(1009.61 -37.1529 0)
(967.942 -2.51373 0)
(989.764 -0.322562 0)
(990 -6.96754e-10 0)
(1002.55 -11.7973 0)
(1000.12 81.419 0)
(990 0.00102145 0)
(694.98 -86.3124 0)
(990 3.85827e-08 0)
(990 -0.00358111 0)
(540.094 -311.147 0)
(990.003 0.00619094 0)
(990.016 0.0175264 0)
(995.354 8.28822 0)
(990 2.57028e-05 0)
(990 5.24941e-08 0)
(990 2.47429e-11 0)
(990.001 0.00620792 0)
(572.58 287.544 0)
(990 1.23113e-14 0)
(934.815 147.538 0)
(993.114 263.905 0)
(665.207 245.064 0)
(435.779 295.058 0)
(990.168 -0.354472 0)
(219.172 -53.2833 0)
(990 -1.68963e-12 0)
(-17.4993 -43.3554 0)
(990 -1.35992e-06 0)
(990 -5.77881e-12 0)
(989.999 -0.0038421 0)
(930.995 205.596 0)
(990 0.00128581 0)
(233.681 -7.78803 0)
(990 1.82162e-11 0)
(1031.49 -239.165 0)
(983.911 116.314 0)
(990.001 -0.000456344 0)
(990 -1.3029e-07 0)
(1017.25 -424.779 0)
(663.692 323.82 0)
(981.217 -208.924 0)
(990 9.43351e-05 0)
(1031.17 121.203 0)
(1032.94 -242.682 0)
(979.494 -2.11326 0)
(990 -1.2742e-08 0)
(898.694 -218.101 0)
(928.113 44.5744 0)
(1023.43 -386.249 0)
(990 6.60392e-07 0)
(166.952 141.758 0)
(1030.7 -155.652 0)
(990 -9.95161e-06 0)
(990 -6.36899e-05 0)
(958.844 163.463 0)
(990 -1.97427e-06 0)
(990 1.13177e-11 0)
(892.628 83.1976 0)
(986.582 -441.322 0)
(992.694 4.31232 0)
(982.935 18.5386 0)
(297.907 242.777 0)
(1030.69 -159.809 0)
(926.012 -94.3338 0)
(990 6.04338e-09 0)
(344.421 279.233 0)
(954.971 94.6828 0)
(989.996 0.000603533 0)
(851.693 506.31 0)
(990 3.42139e-06 0)
(1063.5 -369.952 0)
(990.001 -0.00026352 0)
(990 5.75181e-07 0)
(990 -8.29542e-10 0)
(990.3 -0.0336401 0)
(870.174 130.153 0)
(990.001 -0.000498347 0)
(990.009 -0.0161872 0)
(990 -5.3535e-08 0)
(987.347 -1.94744 0)
(989.98 0.109911 0)
(1019.47 22.217 0)
(496.475 -278.628 0)
(587.946 268.622 0)
(693.741 337.221 0)
(891.206 48.2017 0)
(287.225 317.918 0)
(984.585 119.074 0)
(855.745 167.816 0)
(163.177 30.357 0)
(798.259 121.833 0)
(1066.79 -297.685 0)
(905.224 223.486 0)
(960.747 96.7428 0)
(990 2.53513e-11 0)
(989.999 0.000510846 0)
(990 -4.44968e-12 0)
(888.862 -124.13 0)
(161.778 213.124 0)
(814.181 162.984 0)
(957.897 -62.8589 0)
(971.681 -152.152 0)
(478.587 55.9863 0)
(990 -0.000131109 0)
(1040.2 105.276 0)
(1007.31 -10.4749 0)
(990 -7.95185e-08 0)
(990 -1.1807e-11 0)
(514.343 280.847 0)
(911.452 59.581 0)
(1057.22 -214.828 0)
(224.009 -5.49426 0)
(797.305 -210.451 0)
(196.835 -205.735 0)
(131.591 -105.12 0)
(990.009 0.0212715 0)
(229.801 237.024 0)
(430.486 -312.451 0)
(449.179 337.046 0)
(657.158 319.214 0)
(597.797 332.128 0)
(990 -4.85575e-09 0)
(997.868 -11.4223 0)
(980.571 -195.2 0)
(990 -1.1501e-11 0)
(989.999 0.00241003 0)
(693.258 333.903 0)
(1006.8 -117.701 0)
(985.375 -93.1087 0)
(959.469 -89.2683 0)
(990 7.20709e-05 0)
(244.04 124.585 0)
(990.023 0.041539 0)
(990 -6.228e-08 0)
(990.003 0.00946557 0)
(967.336 -476.481 0)
(990.002 0.00446863 0)
(880.064 253.557 0)
(722.338 -348.817 0)
(990 2.1424e-08 0)
(945.829 -183.384 0)
(1006.35 -18.6369 0)
(734.199 288.139 0)
(989.817 -0.319232 0)
(1011.71 125.207 0)
(990 1.41407e-08 0)
(990 -2.32198e-08 0)
(986.856 -139.723 0)
(836.702 -11.4509 0)
(987.446 -415.732 0)
(821.834 149.909 0)
(990 -2.0464e-05 0)
(644.557 314.718 0)
(990 -3.66592e-08 0)
(1005.79 15.2423 0)
(616.444 14.4436 0)
(1008.71 94.5849 0)
(825.216 -346.747 0)
(984.877 -99.3424 0)
(990.649 -172.581 0)
(990.004 0.00538674 0)
(898.021 147.104 0)
(994.803 -98.4843 0)
(910.75 -196.503 0)
(737.424 219.859 0)
(1006.16 101.316 0)
(990.455 1.28928 0)
(731.293 295.698 0)
(479.366 306.125 0)
(414.405 302.477 0)
(1036.69 84.1382 0)
(238.6 238.37 0)
(989.999 -0.000200853 0)
(446.227 -313.256 0)
(990.188 0.777624 0)
(825.977 -305.323 0)
(991.416 -1.92941 0)
(992.453 -7.23316 0)
(619.862 80.7145 0)
(990 -5.96003e-05 0)
(990 4.57068e-06 0)
(367.62 -284.019 0)
(992.689 44.6372 0)
(990.008 -0.00841685 0)
(990.031 -0.0232726 0)
(990 3.83728e-07 0)
(990 -9.71615e-12 0)
(990 -8.06238e-12 0)
(989.836 -0.28448 0)
(990.073 0.0044032 0)
(990 2.11182e-06 0)
(990 -1.86849e-11 0)
(990 -3.17629e-05 0)
(990 1.17354e-06 0)
(992.53 -0.383934 0)
(303.911 228.91 0)
(407.919 114.742 0)
(990 -0.000119274 0)
(990 -3.34935e-05 0)
(621.59 288.356 0)
(989.501 133.213 0)
(1036.64 281.318 0)
(990 -2.63782e-12 0)
(322.464 266.351 0)
(1012.18 -318.13 0)
(848.014 -190.617 0)
(990 0.000330047 0)
(418.989 -315.265 0)
(1005.82 -164.412 0)
(1023.51 22.2894 0)
(830.755 -274.382 0)
(1034.32 77.046 0)
(990 1.12517e-05 0)
(548.284 296.046 0)
(990 5.2195e-08 0)
(679.575 115.807 0)
(990 0.0016521 0)
(328.477 -256.764 0)
(857.898 189.254 0)
(883.27 70.6944 0)
(989.992 -0.0097814 0)
(943.969 2.36538 0)
(994.68 2.94053 0)
(990 -8.14659e-12 0)
(990 -3.88233e-06 0)
(990 1.77715e-11 0)
(990 -1.0852e-06 0)
(407.344 295.884 0)
(1027 -213.153 0)
(354.077 278.415 0)
(989.999 -0.00269077 0)
(635.64 301.8 0)
(990 -1.45024e-06 0)
(990 -2.19919e-06 0)
(1055.7 362.876 0)
(259.368 295.214 0)
(990.215 -4.0529 0)
(896.678 80.2855 0)
(990.799 1.03063 0)
(389.592 -302.533 0)
(851.459 181.936 0)
(232.795 -74.3309 0)
(990 1.6435e-11 0)
(990 4.37636e-09 0)
(1011.43 -390.36 0)
(1014.61 228.4 0)
(830.95 -275.102 0)
(990 -6.7503e-12 0)
(987.624 -69.5937 0)
(1058.3 246.716 0)
(244.652 -113.424 0)
(990.058 -0.924512 0)
(990 -2.51088e-06 0)
(389.137 -318.675 0)
(655.709 247.172 0)
(990 -1.87829e-05 0)
(990 4.44825e-08 0)
(1061.32 268.873 0)
(872.977 -160.292 0)
(846.863 191.229 0)
(1053.38 -263.196 0)
(801.614 145.356 0)
(990 1.1917e-05 0)
(562.382 -294.318 0)
(989.983 -0.0106166 0)
(979.957 -3.83504 0)
(990.003 0.00772114 0)
(855.613 284.632 0)
(990 1.91228e-11 0)
(425.802 -314.743 0)
(956.511 66.5179 0)
(1002.86 -110.456 0)
(897.449 -216.885 0)
(990 6.95148e-05 0)
(989.871 0.166266 0)
(894.208 -214.576 0)
(470.153 306.212 0)
(990 -2.91763e-09 0)
(990 1.82281e-06 0)
(365.592 -277.476 0)
(672.114 279.025 0)
(905.521 -37.5845 0)
(770.336 174.095 0)
(1035.9 299.837 0)
(990 1.17801e-07 0)
(588.953 319.35 0)
(375.61 -290.409 0)
(443.694 -314.292 0)
(989.672 -0.192504 0)
(1013.66 447.497 0)
(990.122 -0.136174 0)
(258.826 -296.21 0)
(1029.54 -9.38793 0)
(493.739 306.392 0)
(1010.68 469.068 0)
(83.3169 -31.1931 0)
(984.037 -2.53319 0)
(655.063 -235.56 0)
(967.564 160.76 0)
(751.07 330.024 0)
(988.747 -22.4738 0)
(894.352 -113.316 0)
(990.079 -0.0666152 0)
(989.856 0.707778 0)
(990 -2.32136e-05 0)
(651.537 -347.003 0)
(104.012 -80.4524 0)
(990 7.69063e-08 0)
(935.221 -48.6975 0)
(302.338 -246.978 0)
(990.903 -2.73243 0)
(990 4.45755e-12 0)
(980.416 -12.4587 0)
(990 -7.20545e-08 0)
(985.992 -75.2255 0)
(980.351 113.697 0)
(878.087 258.475 0)
(990 -0.000462038 0)
(990 -6.78565e-10 0)
(990 -2.39674e-11 0)
(401.968 -297.536 0)
(1006.74 -458.166 0)
(990 7.49226e-12 0)
(1032.49 -36.6147 0)
(990.413 2.41283 0)
(200.986 -2.50545 0)
(990 2.64111e-10 0)
(722.723 317.851 0)
(289.655 -272.504 0)
(990 -0.000198168 0)
(990 0.0143951 0)
(989.99 0.00652786 0)
(990.014 0.0641858 0)
(989.998 0.00562872 0)
(862.636 183.496 0)
(-100.815 5.11764 0)
(625.643 -336.049 0)
(223.053 -83.5033 0)
(383.85 -313.077 0)
(873.005 -236.076 0)
(1064.07 -388.631 0)
(1021.6 277.681 0)
(933.904 164.26 0)
(1070.97 -360.117 0)
(807.686 -192.974 0)
(990 -2.62827e-05 0)
(989.971 -0.0862132 0)
(743.535 -219.321 0)
(372.596 290.086 0)
(996.119 4.80477 0)
(990 3.76605e-12 0)
(601.058 -306.627 0)
(990 2.61862e-05 0)
(1026.55 -25.2842 0)
(990 2.00462e-06 0)
(990 6.56258e-06 0)
(990 -0.000417945 0)
(1061.48 -377.112 0)
(990 -1.11005e-06 0)
(788.265 321.079 0)
(990 1.40696e-11 0)
(654.839 -346.821 0)
(889.915 -82.0005 0)
(1073.37 -376.37 0)
(201.198 -260.506 0)
(990 3.02486e-11 0)
(988.316 -2.13103 0)
(990 -5.97508e-05 0)
(990 -0.000288167 0)
(990 -5.00533e-12 0)
(928.261 -31.2556 0)
(958.222 13.1562 0)
(990 0.000191157 0)
(990 -2.6311e-12 0)
(207.07 -269.507 0)
(1012.03 387.079 0)
(989.973 0.132708 0)
(990 -0.000225828 0)
(1019.68 -247.556 0)
(610.756 -347.609 0)
(584.191 268.15 0)
(735.692 297.147 0)
(653.596 -172.558 0)
(990 3.68054e-08 0)
(990 4.84986e-12 0)
(973.04 -157.384 0)
(1057.44 -22.97 0)
(990 -1.30345e-11 0)
(729.578 336.399 0)
(990 3.0522e-08 0)
(287.268 -304.157 0)
(1028.56 -217.046 0)
(989.997 -0.0341768 0)
(711.454 326.92 0)
(972.926 144.075 0)
(321.479 -311.663 0)
(986.383 -47.2764 0)
(889.88 -241.392 0)
(687.616 -212.449 0)
(1006.14 -144.36 0)
(928.797 166.566 0)
(777.553 -187.37 0)
(654.811 64.6329 0)
(622.975 -255.16 0)
(990.001 0.00776201 0)
(989.981 -0.0289983 0)
(990 4.33985e-09 0)
(990 2.63369e-09 0)
(990 -0.000166311 0)
(990 1.94773e-05 0)
(727.348 -206.019 0)
(990 1.61197e-11 0)
(990 2.00089e-11 0)
(895.708 -219.099 0)
(990.592 1.16481 0)
(632.2 303.875 0)
(723.525 -232.163 0)
(990 -1.38235e-05 0)
(990 -2.6522e-07 0)
(989.998 -0.00268273 0)
(989.999 -0.000816829 0)
(1014.27 -15.988 0)
(1020.45 -241.449 0)
(625.581 -341.304 0)
(1026.82 439.581 0)
(989.903 0.170947 0)
(990 -1.91092e-07 0)
(419.763 298.954 0)
(958.93 172.936 0)
(667.71 334.979 0)
(990 5.41463e-07 0)
(985.602 -3.90997 0)
(990 2.31889e-05 0)
(990 -1.00909e-11 0)
(990 3.88744e-11 0)
(999.122 -472.335 0)
(989.994 0.0012758 0)
(990.001 -0.00230032 0)
(1053.43 375.893 0)
(990.424 0.239351 0)
(978.157 -102.117 0)
(193.617 184.882 0)
(481.818 -49.9272 0)
(990.001 -0.000913384 0)
(989.97 -0.102288 0)
(990 6.91066e-05 0)
(990 5.1897e-11 0)
(989.999 -0.00339437 0)
(929.208 -162.491 0)
(990 -6.07311e-05 0)
(990.088 -0.415121 0)
(990 -4.2598e-12 0)
(673.154 -258.407 0)
(994.678 -92.1749 0)
(882.229 39.0181 0)
(988.46 -3.3052 0)
(581.954 297.09 0)
(989.999 -8.09943e-05 0)
(990 -4.16142e-07 0)
(601.639 -280.67 0)
(1018.19 -10.6614 0)
(986.763 7.68832 0)
(224.332 -13.2281 0)
(910.105 -32.5182 0)
(904.964 81.0773 0)
(993.929 -100.073 0)
(990 2.21873e-06 0)
(1017.18 147.745 0)
(472.359 313.982 0)
(989.974 -0.08029 0)
(990 -3.5415e-11 0)
(883.87 237.308 0)
(990 4.90196e-05 0)
(809.644 -243.675 0)
(993.698 -6.83361 0)
(714.736 -220.211 0)
(990 3.61931e-10 0)
(423.01 -37.3406 0)
(990 7.39487e-07 0)
(990 -1.65206e-07 0)
(988.745 -0.251075 0)
(990 -1.76032e-06 0)
(384.525 -290.622 0)
(990 -0.000593343 0)
(847.142 229.557 0)
(990.052 0.0118781 0)
(989.965 -0.109933 0)
(880.194 -225.516 0)
(877.982 -260.161 0)
(880.054 239.601 0)
(862.12 -148.448 0)